ITEM: TIMESTEP
0
ITEM: NUMBER OF ATOMS
2424
ITEM: BOX BOUNDS pp pp pp
-50 50
-50 50
-50 50
ITEM: ATOMS id type xs ys zs
1721 2 0.49003 0.470241 0.406942
2226 2 0.5 0.466242 0.407776
1718 2 0.50997 0.470241 0.406942
1730 2 0.480398 0.474387 0.407239
2227 2 0.5 0.47573 0.404838
1715 2 0.519602 0.474387 0.407239
1731 2 0.480255 0.484575 0.405042
1722 2 0.489981 0.480044 0.404364
2228 2 0.5 0.485285 0.402901
1716 2 0.510019 0.480044 0.404364
1712 2 0.519745 0.484575 0.405042
1739 2 0.470939 0.489414 0.40679
1723 2 0.489919 0.489981 0.402826
1713 2 0.510081 0.489981 0.402826
1707 2 0.529061 0.489414 0.40679
1732 2 0.480186 0.494827 0.403951
1724 2 0.489926 0.5 0.40231
2229 2 0.5 0.495143 0.401912
1709 2 0.510074 0.5 0.40231
1708 2 0.519814 0.494827 0.403951
1702 2 0.529128 0.5 0.406211
1740 2 0.470872 0.5 0.406211
1733 2 0.480186 0.505173 0.403951
2230 2 0.5 0.504857 0.401912
1703 2 0.519814 0.505173 0.403951
1741 2 0.470939 0.510586 0.40679
1725 2 0.489919 0.510019 0.402826
1704 2 0.510081 0.510019 0.402826
1696 2 0.529061 0.510586 0.40679
1734 2 0.480255 0.515425 0.405042
1726 2 0.489981 0.519956 0.404364
2231 2 0.5 0.514715 0.402901
1698 2 0.510019 0.519956 0.404364
1697 2 0.519745 0.515425 0.405042
1735 2 0.480398 0.525613 0.407239
2232 2 0.5 0.52427 0.404838
1690 2 0.519602 0.525613 0.407239
1727 2 0.49003 0.529759 0.406942
2233 2 0.5 0.533758 0.407776
1691 2 0.50997 0.529759 0.406942
2313 2 0.481199 0.454622 0.414958
2314 2 0.490453 0.451278 0.415266
2225 2 0.5 0.457179 0.41162
2315 2 0.509547 0.451278 0.415266
2316 2 0.518801 0.454622 0.414958
1729 2 0.480627 0.46443 0.410533
1720 2 0.490152 0.460656 0.410558
1719 2 0.509848 0.460656 0.410558
1717 2 0.519373 0.46443 0.410533
1737 2 0.471423 0.468575 0.411453
1714 2 0.528577 0.468575 0.411453
1744 2 0.462633 0.473118 0.413248
1710 2 0.537367 0.473118 0.413248
1745 2 0.462283 0.483763 0.410789
1738 2 0.471102 0.478918 0.408538
1711 2 0.528898 0.478918 0.408538
1706 2 0.537717 0.483763 0.410789
1751 2 0.453914 0.488936 0.413986
1700 2 0.546086 0.488936 0.413986
1752 2 0.453811 0.5 0.413332
1746 2 0.462107 0.494583 0.409559
1701 2 0.537893 0.494583 0.409559
1747 2 0.462107 0.505417 0.409559
1695 2 0.537893 0.505417 0.409559
1694 2 0.546189 0.5 0.413332
1753 2 0.453914 0.511064 0.413986
1687 2 0.546086 0.511064 0.413986
1748 2 0.462283 0.516237 0.410789
1742 2 0.471102 0.521082 0.408538
1689 2 0.528898 0.521082 0.408538
1688 2 0.537717 0.516237 0.410789
1749 2 0.462633 0.526882 0.413248
1680 2 0.537367 0.526882 0.413248
1743 2 0.471423 0.531425 0.411453
1681 2 0.528577 0.531425 0.411453
1736 2 0.480627 0.53557 0.410533
1728 2 0.490152 0.539344 0.410558
1683 2 0.509848 0.539344 0.410558
1682 2 0.519373 0.53557 0.410533
2223 2 0.481199 0.545378 0.414958
2224 2 0.490453 0.548722 0.415266
2234 2 0.5 0.542821 0.41162
2235 2 0.509547 0.548722 0.415266
2236 2 0.518801 0.545378 0.414958
2384 2 0.4941 0.441731 0.421166
2385 2 0.5059 0.441731 0.421166
1451 2 0.474465 0.448298 0.420504
1450 2 0.484066 0.444722 0.420406
1213 2 0.5 0.448369 0.416459
1449 2 0.515934 0.444722 0.420406
1448 2 0.525535 0.448298 0.420504
1452 2 0.465231 0.452363 0.421472
1446 2 0.534769 0.452363 0.421472
2311 2 0.463355 0.462637 0.416898
2312 2 0.472054 0.458459 0.415513
2317 2 0.527946 0.458459 0.415513
2318 2 0.536645 0.462637 0.416898
2310 2 0.454885 0.467261 0.419145
2319 2 0.545115 0.467261 0.419145
2309 2 0.447027 0.472118 0.422146
1750 2 0.454268 0.477962 0.41593
1705 2 0.545732 0.477962 0.41593
2320 2 0.552973 0.472118 0.422146
1755 2 0.446423 0.483137 0.41944
1699 2 0.553577 0.483137 0.41944
1756 2 0.446144 0.494343 0.418071
1693 2 0.553856 0.494343 0.418071
1757 2 0.446144 0.505657 0.418071
1686 2 0.553856 0.505657 0.418071
1758 2 0.446423 0.516863 0.41944
1678 2 0.553577 0.516863 0.41944
2219 2 0.447027 0.527882 0.422146
1754 2 0.454268 0.522038 0.41593
1679 2 0.545732 0.522038 0.41593
2240 2 0.552973 0.527882 0.422146
2220 2 0.454885 0.532739 0.419145
2239 2 0.545115 0.532739 0.419145
2221 2 0.463355 0.537363 0.416898
2222 2 0.472054 0.541541 0.415513
2237 2 0.527946 0.541541 0.415513
2238 2 0.536645 0.537363 0.416898
2007 2 0.465231 0.547637 0.421472
1984 2 0.534769 0.547637 0.421472
1999 2 0.474465 0.551702 0.420504
1990 2 0.484066 0.555278 0.420406
1220 2 0.5 0.551631 0.416459
1989 2 0.515934 0.555278 0.420406
1987 2 0.525535 0.551702 0.420504
2144 2 0.4941 0.558269 0.421166
2145 2 0.5059 0.558269 0.421166
2383 2 0.48838 0.435821 0.426578
1278 2 0.5 0.434874 0.426492
2386 2 0.51162 0.435821 0.426578
1460 2 0.468284 0.442671 0.426841
1459 2 0.478056 0.438896 0.426315
1447 2 0.521944 0.438896 0.426315
1445 2 0.531716 0.442671 0.426841
1461 2 0.458898 0.44697 0.428284
1442 2 0.541102 0.44697 0.428284
1453 2 0.456403 0.456807 0.423329
1443 2 0.543597 0.456807 0.423329
1454 2 0.448042 0.461662 0.426004
1439 2 0.551958 0.461662 0.426004
1455 2 0.440193 0.466825 0.429521
1434 2 0.559807 0.466825 0.429521
2308 2 0.439545 0.477352 0.425992
2321 2 0.560455 0.477352 0.425992
1759 2 0.439134 0.488531 0.423786
1692 2 0.560866 0.488531 0.423786
1762 2 0.432477 0.494189 0.428925
1685 2 0.561045 0.5 0.423069
1684 2 0.567523 0.494189 0.428925
1763 2 0.432477 0.505811 0.428925
1760 2 0.438955 0.5 0.423069
1676 2 0.567523 0.505811 0.428925
1761 2 0.439134 0.511469 0.423786
1677 2 0.560866 0.511469 0.423786
2218 2 0.439545 0.522648 0.425992
2241 2 0.560455 0.522648 0.425992
2025 2 0.440193 0.533175 0.429521
1969 2 0.559807 0.533175 0.429521
2020 2 0.448042 0.538338 0.426004
1975 2 0.551958 0.538338 0.426004
2014 2 0.456403 0.543193 0.423329
1980 2 0.543597 0.543193 0.423329
2008 2 0.458898 0.55303 0.428284
1981 2 0.541102 0.55303 0.428284
2000 2 0.468284 0.557329 0.426841
1991 2 0.478056 0.561104 0.426315
1988 2 0.521944 0.561104 0.426315
1985 2 0.531716 0.557329 0.426841
2143 2 0.48838 0.564179 0.426578
2124 2 0.5 0.565126 0.426492
2146 2 0.51162 0.564179 0.426578
1286 2 0.494189 0.428925 0.432477
1277 2 0.505811 0.428925 0.432477
1467 2 0.472319 0.433806 0.432941
2382 2 0.482728 0.430512 0.432785
2387 2 0.517272 0.430512 0.432785
1444 2 0.527681 0.433806 0.432941
1469 2 0.452978 0.442393 0.435851
1468 2 0.462395 0.437817 0.433941
1441 2 0.537605 0.437817 0.433941
1437 2 0.547022 0.442393 0.435851
1463 2 0.441668 0.456875 0.4338
1462 2 0.450037 0.451703 0.430603
1438 2 0.549963 0.451703 0.430603
1433 2 0.558332 0.456875 0.4338
1456 2 0.432941 0.472319 0.433806
1428 2 0.567059 0.472319 0.433806
2307 2 0.432785 0.482728 0.430512
2322 2 0.567215 0.482728 0.430512
2306 2 0.426578 0.48838 0.435821
2323 2 0.573422 0.48838 0.435821
1764 2 0.426492 0.5 0.434874
1675 2 0.573508 0.5 0.434874
2216 2 0.426578 0.51162 0.435821
2243 2 0.573422 0.51162 0.435821
2217 2 0.432785 0.517272 0.430512
2242 2 0.567215 0.517272 0.430512
2029 2 0.432941 0.527681 0.433806
1962 2 0.567059 0.527681 0.433806
2021 2 0.441668 0.543125 0.4338
2015 2 0.450037 0.548297 0.430603
1976 2 0.549963 0.548297 0.430603
1970 2 0.558332 0.543125 0.4338
2009 2 0.452978 0.557607 0.435851
2001 2 0.462395 0.562183 0.433941
1982 2 0.537605 0.562183 0.433941
1977 2 0.547022 0.557607 0.435851
1992 2 0.472319 0.566194 0.432941
2142 2 0.482728 0.569488 0.432785
2147 2 0.517272 0.569488 0.432785
1986 2 0.527681 0.566194 0.432941
2123 2 0.494189 0.571075 0.432477
2122 2 0.505811 0.571075 0.432477
1474 2 0.466825 0.429521 0.440193
2381 2 0.477352 0.425992 0.439545
1293 2 0.488531 0.423786 0.439134
1285 2 0.5 0.423069 0.438955
1276 2 0.511469 0.423786 0.439134
2388 2 0.522648 0.425992 0.439545
1440 2 0.533175 0.429521 0.440193
1475 2 0.456875 0.4338 0.441668
1436 2 0.543125 0.4338 0.441668
1470 2 0.444104 0.447452 0.438687
1432 2 0.555896 0.447452 0.438687
1471 2 0.435851 0.452978 0.442393
1426 2 0.564149 0.452978 0.442393
1464 2 0.433941 0.462395 0.437817
1427 2 0.566059 0.462395 0.437817
1465 2 0.426841 0.468284 0.442671
1420 2 0.573159 0.468284 0.442671
1457 2 0.426315 0.478056 0.438896
1421 2 0.573685 0.478056 0.438896
2305 2 0.421166 0.4941 0.441731
2324 2 0.578834 0.4941 0.441731
2215 2 0.421166 0.5059 0.441731
2244 2 0.578834 0.5059 0.441731
2032 2 0.426315 0.521944 0.438896
1954 2 0.573685 0.521944 0.438896
2030 2 0.426841 0.531716 0.442671
1955 2 0.573159 0.531716 0.442671
2026 2 0.433941 0.537605 0.437817
1963 2 0.566059 0.537605 0.437817
2022 2 0.435851 0.547022 0.442393
1964 2 0.564149 0.547022 0.442393
2016 2 0.444104 0.552548 0.438687
1971 2 0.555896 0.552548 0.438687
2002 2 0.456875 0.5662 0.441668
1978 2 0.543125 0.5662 0.441668
1993 2 0.466825 0.570479 0.440193
2141 2 0.477352 0.574008 0.439545
2121 2 0.488531 0.576214 0.439134
2120 2 0.5 0.576931 0.438955
2119 2 0.511469 0.576214 0.439134
2148 2 0.522648 0.574008 0.439545
1983 2 0.533175 0.570479 0.440193
2380 2 0.472118 0.422146 0.447027
1299 2 0.483137 0.41944 0.446423
1292 2 0.494343 0.418071 0.446144
1284 2 0.505657 0.418071 0.446144
1275 2 0.516863 0.41944 0.446423
2389 2 0.527882 0.422146 0.447027
1480 2 0.461662 0.426004 0.448042
1435 2 0.538338 0.426004 0.448042
1481 2 0.451703 0.430603 0.450037
1430 2 0.548297 0.430603 0.450037
1476 2 0.447452 0.438687 0.444104
1431 2 0.552548 0.438687 0.444104
1477 2 0.438687 0.444104 0.447452
1425 2 0.561313 0.444104 0.447452
1472 2 0.428284 0.458898 0.44697
1419 2 0.571716 0.458898 0.44697
1466 2 0.420504 0.474465 0.448298
1412 2 0.579496 0.474465 0.448298
1458 2 0.420406 0.484066 0.444722
1413 2 0.579594 0.484066 0.444722
1223 2 0.583541 0.5 0.448369
1224 2 0.416459 0.5 0.448369
2034 2 0.420406 0.515934 0.444722
1945 2 0.579594 0.515934 0.444722
2033 2 0.420504 0.525535 0.448298
1946 2 0.579496 0.525535 0.448298
2027 2 0.428284 0.541102 0.44697
1956 2 0.571716 0.541102 0.44697
2017 2 0.438687 0.555896 0.447452
1965 2 0.561313 0.555896 0.447452
2010 2 0.447452 0.561313 0.444104
1972 2 0.552548 0.561313 0.444104
2003 2 0.451703 0.569397 0.450037
1973 2 0.548297 0.569397 0.450037
1994 2 0.461662 0.573996 0.448042
1979 2 0.538338 0.573996 0.448042
2140 2 0.472118 0.577854 0.447027
2118 2 0.483137 0.58056 0.446423
2117 2 0.494343 0.581929 0.446144
2116 2 0.505657 0.581929 0.446144
2115 2 0.516863 0.58056 0.446423
2149 2 0.527882 0.577854 0.447027
1298 2 0.488936 0.413986 0.453914
1291 2 0.5 0.413332 0.453811
1283 2 0.511064 0.413986 0.453914
2379 2 0.467261 0.419145 0.454885
1304 2 0.477962 0.41593 0.454268
1274 2 0.522038 0.41593 0.454268
2390 2 0.532739 0.419145 0.454885
1485 2 0.456807 0.423329 0.456403
1429 2 0.543193 0.423329 0.456403
1482 2 0.442393 0.435851 0.452978
1424 2 0.557607 0.435851 0.452978
1483 2 0.4338 0.441668 0.456875
1417 2 0.5662 0.441668 0.456875
1478 2 0.430603 0.450037 0.451703
1418 2 0.569397 0.450037 0.451703
1479 2 0.423329 0.456403 0.456807
1410 2 0.576671 0.456403 0.456807
1473 2 0.421472 0.465231 0.452363
1411 2 0.578528 0.465231 0.452363
2303 2 0.414958 0.481199 0.454622
2326 2 0.585042 0.481199 0.454622
2304 2 0.415266 0.490453 0.451278
2325 2 0.584734 0.490453 0.451278
2245 2 0.58838 0.5 0.457179
2294 2 0.41162 0.5 0.457179
2214 2 0.415266 0.509547 0.451278
2155 2 0.584734 0.509547 0.451278
2213 2 0.414958 0.518801 0.454622
2156 2 0.585042 0.518801 0.454622
2031 2 0.421472 0.534769 0.452363
1947 2 0.578528 0.534769 0.452363
2028 2 0.423329 0.543597 0.456807
1948 2 0.576671 0.543597 0.456807
2023 2 0.430603 0.549963 0.451703
1957 2 0.569397 0.549963 0.451703
2018 2 0.4338 0.558332 0.456875
1958 2 0.5662 0.558332 0.456875
2011 2 0.442393 0.564149 0.452978
1966 2 0.557607 0.564149 0.452978
1995 2 0.456807 0.576671 0.456403
1974 2 0.543193 0.576671 0.456403
2139 2 0.467261 0.580855 0.454885
2114 2 0.477962 0.58407 0.454268
2110 2 0.522038 0.58407 0.454268
2150 2 0.532739 0.580855 0.454885
2113 2 0.488936 0.586014 0.453914
2112 2 0.5 0.586668 0.453811
2111 2 0.511064 0.586014 0.453914
1308 2 0.473118 0.413248 0.462633
1303 2 0.483763 0.410789 0.462283
1297 2 0.494583 0.409559 0.462107
1290 2 0.505417 0.409559 0.462107
1282 2 0.516237 0.410789 0.462283
1273 2 0.526882 0.413248 0.462633
2378 2 0.462637 0.416898 0.463355
2391 2 0.537363 0.416898 0.463355
1486 2 0.44697 0.428284 0.458898
1423 2 0.55303 0.428284 0.458898
1487 2 0.437817 0.433941 0.462395
1416 2 0.562183 0.433941 0.462395
1484 2 0.426004 0.448042 0.461662
1409 2 0.573996 0.448042 0.461662
2301 2 0.416898 0.463355 0.462637
2328 2 0.583102 0.463355 0.462637
2302 2 0.415513 0.472054 0.458459
2327 2 0.584487 0.472054 0.458459
1502 2 0.410533 0.480627 0.46443
1646 2 0.589467 0.480627 0.46443
1503 2 0.410558 0.490152 0.460656
1638 2 0.589442 0.490152 0.460656
1765 2 0.410558 0.509848 0.460656
1944 2 0.589442 0.509848 0.460656
1766 2 0.410533 0.519373 0.46443
1943 2 0.589467 0.519373 0.46443
2212 2 0.415513 0.527946 0.458459
2157 2 0.584487 0.527946 0.458459
2211 2 0.416898 0.536645 0.462637
2158 2 0.583102 0.536645 0.462637
2024 2 0.426004 0.551958 0.461662
1949 2 0.573996 0.551958 0.461662
2012 2 0.437817 0.566059 0.462395
1959 2 0.562183 0.566059 0.462395
2004 2 0.44697 0.571716 0.458898
1967 2 0.55303 0.571716 0.458898
2138 2 0.462637 0.583102 0.463355
2151 2 0.537363 0.583102 0.463355
2109 2 0.473118 0.586752 0.462633
2108 2 0.483763 0.589211 0.462283
2107 2 0.494583 0.590441 0.462107
2106 2 0.505417 0.590441 0.462107
2105 2 0.516237 0.589211 0.462283
2104 2 0.526882 0.586752 0.462633
1302 2 0.489414 0.40679 0.470939
1296 2 0.5 0.406211 0.470872
1289 2 0.510586 0.40679 0.470939
1311 2 0.468575 0.411453 0.471423
1307 2 0.478918 0.408538 0.471102
1281 2 0.521082 0.408538 0.471102
1272 2 0.531425 0.411453 0.471423
1489 2 0.452363 0.421472 0.465231
1422 2 0.547637 0.421472 0.465231
1490 2 0.442671 0.426841 0.468284
1415 2 0.557329 0.426841 0.468284
1488 2 0.429521 0.440193 0.466825
1408 2 0.570479 0.440193 0.466825
2300 2 0.419145 0.454885 0.467261
2329 2 0.580855 0.454885 0.467261
1501 2 0.411453 0.471423 0.468575
1653 2 0.588547 0.471423 0.468575
1511 2 0.406942 0.49003 0.470241
1637 2 0.593058 0.49003 0.470241
2246 2 0.592224 0.5 0.466242
2293 2 0.407776 0.5 0.466242
1774 2 0.406942 0.50997 0.470241
1942 2 0.593058 0.50997 0.470241
1767 2 0.411453 0.528577 0.468575
1941 2 0.588547 0.528577 0.468575
2210 2 0.419145 0.545115 0.467261
2159 2 0.580855 0.545115 0.467261
2019 2 0.429521 0.559807 0.466825
1950 2 0.570479 0.559807 0.466825
2005 2 0.442671 0.573159 0.468284
1960 2 0.557329 0.573159 0.468284
1996 2 0.452363 0.578528 0.465231
1968 2 0.547637 0.578528 0.465231
2103 2 0.468575 0.588547 0.471423
2102 2 0.478918 0.591462 0.471102
2098 2 0.521082 0.591462 0.471102
2097 2 0.531425 0.588547 0.471423
2101 2 0.489414 0.59321 0.470939
2100 2 0.5 0.593789 0.470872
2099 2 0.510586 0.59321 0.470939
1492 2 0.448298 0.420504 0.474465
2377 2 0.458459 0.415513 0.472054
2392 2 0.541541 0.415513 0.472054
1414 2 0.551702 0.420504 0.474465
1493 2 0.438896 0.426315 0.478056
1406 2 0.561104 0.426315 0.478056
1491 2 0.433806 0.432941 0.472319
1407 2 0.566194 0.432941 0.472319
2298 2 0.425992 0.439545 0.477352
2331 2 0.574008 0.439545 0.477352
2299 2 0.422146 0.447027 0.472118
2330 2 0.577854 0.447027 0.472118
1499 2 0.41593 0.454268 0.477962
1664 2 0.58407 0.454268 0.477962
1500 2 0.413248 0.462633 0.473118
1659 2 0.586752 0.462633 0.473118
1510 2 0.407239 0.480398 0.474387
1645 2 0.592761 0.480398 0.474387
2247 2 0.595162 0.5 0.47573
2292 2 0.404838 0.5 0.47573
1775 2 0.407239 0.519602 0.474387
1940 2 0.592761 0.519602 0.474387
1768 2 0.413248 0.537367 0.473118
1938 2 0.586752 0.537367 0.473118
1769 2 0.41593 0.545732 0.477962
1934 2 0.58407 0.545732 0.477962
2209 2 0.422146 0.552973 0.472118
2160 2 0.577854 0.552973 0.472118
2208 2 0.425992 0.560455 0.477352
2161 2 0.574008 0.560455 0.477352
2013 2 0.433806 0.567059 0.472319
1951 2 0.566194 0.567059 0.472319
2006 2 0.438896 0.573685 0.478056
1952 2 0.561104 0.573685 0.478056
1997 2 0.448298 0.579496 0.474465
2137 2 0.458459 0.584487 0.472054
2152 2 0.541541 0.584487 0.472054
1961 2 0.551702 0.579496 0.474465
1310 2 0.474387 0.407239 0.480398
1306 2 0.484575 0.405042 0.480255
1301 2 0.494827 0.403951 0.480186
1295 2 0.505173 0.403951 0.480186
1288 2 0.515425 0.405042 0.480255
1280 2 0.525613 0.407239 0.480398
2376 2 0.454622 0.414958 0.481199
1313 2 0.46443 0.410533 0.480627
1271 2 0.53557 0.410533 0.480627
2393 2 0.545378 0.414958 0.481199
1494 2 0.444722 0.420406 0.484066
1405 2 0.555278 0.420406 0.484066
2297 2 0.430512 0.432785 0.482728
2332 2 0.569488 0.432785 0.482728
1498 2 0.41944 0.446423 0.483137
1668 2 0.58056 0.446423 0.483137
1508 2 0.410789 0.462283 0.483763
1658 2 0.589211 0.462283 0.483763
1509 2 0.408538 0.471102 0.478918
1652 2 0.591462 0.471102 0.478918
1517 2 0.405042 0.480255 0.484575
1644 2 0.594958 0.480255 0.484575
1518 2 0.404364 0.489981 0.480044
1636 2 0.595636 0.489981 0.480044
2248 2 0.597099 0.5 0.485285
2291 2 0.402901 0.5 0.485285
1782 2 0.404364 0.510019 0.480044
1939 2 0.595636 0.510019 0.480044
1783 2 0.405042 0.519745 0.484575
1936 2 0.594958 0.519745 0.484575
1776 2 0.408538 0.528898 0.478918
1937 2 0.591462 0.528898 0.478918
1777 2 0.410789 0.537717 0.483763
1933 2 0.589211 0.537717 0.483763
1770 2 0.41944 0.553577 0.483137
1929 2 0.58056 0.553577 0.483137
2207 2 0.430512 0.567215 0.482728
2162 2 0.569488 0.567215 0.482728
1998 2 0.444722 0.579594 0.484066
1953 2 0.555278 0.579594 0.484066
2136 2 0.454622 0.585042 0.481199
2096 2 0.46443 0.589467 0.480627
2089 2 0.53557 0.589467 0.480627
2153 2 0.545378 0.585042 0.481199
2095 2 0.474387 0.592761 0.480398
2094 2 0.484575 0.594958 0.480255
2093 2 0.494827 0.596049 0.480186
2092 2 0.505173 0.596049 0.480186
2091 2 0.515425 0.594958 0.480255
2090 2 0.525613 0.592761 0.480398
1312 2 0.470241 0.406942 0.49003
1309 2 0.480044 0.404364 0.489981
1305 2 0.489981 0.402826 0.489919
1300 2 0.5 0.40231 0.489926
1294 2 0.510019 0.402826 0.489919
1287 2 0.519956 0.404364 0.489981
1279 2 0.529759 0.406942 0.49003
2375 2 0.451278 0.415266 0.490453
1314 2 0.460656 0.410558 0.490152
1270 2 0.539344 0.410558 0.490152
2394 2 0.548722 0.415266 0.490453
2296 2 0.435821 0.426578 0.48838
2333 2 0.564179 0.426578 0.48838
1497 2 0.423786 0.439134 0.488531
1671 2 0.576214 0.439134 0.488531
1507 2 0.413986 0.453914 0.488936
1663 2 0.586014 0.453914 0.488936
1516 2 0.40679 0.470939 0.489414
1651 2 0.59321 0.470939 0.489414
1524 2 0.402826 0.489919 0.489981
1635 2 0.597174 0.489919 0.489981
1789 2 0.402826 0.510081 0.489981
1935 2 0.597174 0.510081 0.489981
1784 2 0.40679 0.529061 0.489414
1932 2 0.59321 0.529061 0.489414
1778 2 0.413986 0.546086 0.488936
1928 2 0.586014 0.546086 0.488936
1771 2 0.423786 0.560866 0.488531
1923 2 0.576214 0.560866 0.488531
2206 2 0.435821 0.573422 0.48838
2163 2 0.564179 0.573422 0.48838
2135 2 0.451278 0.584734 0.490453
2088 2 0.460656 0.589442 0.490152
2080 2 0.539344 0.589442 0.490152
2154 2 0.548722 0.584734 0.490453
2087 2 0.470241 0.593058 0.49003
2086 2 0.480044 0.595636 0.489981
2085 2 0.489981 0.597174 0.489919
2084 2 0.5 0.59769 0.489926
2083 2 0.510019 0.597174 0.489919
2082 2 0.519956 0.595636 0.489981
2081 2 0.529759 0.593058 0.49003
2295 2 0.441731 0.421166 0.4941
2334 2 0.558269 0.421166 0.4941
1495 2 0.434874 0.426492 0.5
1674 2 0.565126 0.426492 0.5
1496 2 0.428925 0.432477 0.494189
1673 2 0.571075 0.432477 0.494189
1506 2 0.418071 0.446144 0.494343
1667 2 0.581929 0.446144 0.494343
1514 2 0.413332 0.453811 0.5
1662 2 0.586668 0.453811 0.5
1515 2 0.409559 0.462107 0.494583
1657 2 0.590441 0.462107 0.494583
1523 2 0.403951 0.480186 0.494827
1643 2 0.596049 0.480186 0.494827
1529 2 0.40231 0.489926 0.5
2249 2 0.598088 0.5 0.495143
2290 2 0.401912 0.5 0.495143
1795 2 0.40231 0.510074 0.5
1930 2 0.59769 0.510074 0.5
1790 2 0.403951 0.519814 0.494827
1931 2 0.596049 0.519814 0.494827
1785 2 0.409559 0.537893 0.494583
1927 2 0.590441 0.537893 0.494583
1786 2 0.413332 0.546189 0.5
1921 2 0.586668 0.546189 0.5
1779 2 0.418071 0.553856 0.494343
1922 2 0.581929 0.553856 0.494343
1772 2 0.428925 0.567523 0.494189
1916 2 0.571075 0.567523 0.494189
1773 2 0.434874 0.573508 0.5
1908 2 0.565126 0.573508 0.5
2205 2 0.441731 0.578834 0.4941
2164 2 0.558269 0.578834 0.4941
2412 2 0.466242 0.407776 0.5
2410 2 0.47573 0.404838 0.5
2408 2 0.485285 0.402901 0.5
2406 2 0.495143 0.401912 0.5
2404 2 0.504857 0.401912 0.5
2402 2 0.514715 0.402901 0.5
2400 2 0.52427 0.404838 0.5
2398 2 0.533758 0.407776 0.5
2414 2 0.457179 0.41162 0.5
2396 2 0.542821 0.41162 0.5
2374 2 0.441731 0.421166 0.5059
1218 2 0.448369 0.416459 0.5
1217 2 0.551631 0.416459 0.5
2335 2 0.558269 0.421166 0.5059
1504 2 0.428925 0.432477 0.505811
1672 2 0.571075 0.432477 0.505811
1505 2 0.423069 0.438955 0.5
1670 2 0.576931 0.438955 0.5
1513 2 0.418071 0.446144 0.505657
1666 2 0.581929 0.446144 0.505657
1521 2 0.409559 0.462107 0.505417
1656 2 0.590441 0.462107 0.505417
1522 2 0.406211 0.470872 0.5
1650 2 0.593789 0.470872 0.5
1528 2 0.403951 0.480186 0.505173
1642 2 0.596049 0.480186 0.505173
1634 2 0.59769 0.489926 0.5
2289 2 0.401912 0.5 0.504857
1 1 0.5 0.5 0.5
2 1 0.5 0.5 0.5
3 1 0.5 0.5 0.5
4 1 0.5 0.5 0.5
5 1 0.5 0.5 0.5
6 1 0.5 0.5 0.5
7 1 0.5 0.5 0.5
8 1 0.5 0.5 0.5
9 1 0.5 0.5 0.5
10 1 0.5 0.5 0.5
11 1 0.5 0.5 0.5
12 1 0.5 0.5 0.5
13 1 0.5 0.5 0.5
14 1 0.5 0.5 0.5
15 1 0.5 0.5 0.5
16 1 0.5 0.5 0.5
17 1 0.5 0.5 0.5
18 1 0.5 0.5 0.5
19 1 0.5 0.5 0.5
20 1 0.5 0.5 0.5
21 1 0.5 0.5 0.5
22 1 0.5 0.5 0.5
23 1 0.5 0.5 0.5
24 1 0.5 0.5 0.5
25 1 0.5 0.5 0.5
26 1 0.5 0.5 0.5
27 1 0.5 0.5 0.5
28 1 0.5 0.5 0.5
29 1 0.5 0.5 0.5
30 1 0.5 0.5 0.5
31 1 0.5 0.5 0.5
32 1 0.5 0.5 0.5
33 1 0.5 0.5 0.5
34 1 0.5 0.5 0.5
35 1 0.5 0.5 0.5
36 1 0.5 0.5 0.5
37 1 0.5 0.5 0.5
38 1 0.5 0.5 0.5
39 1 0.5 0.5 0.5
40 1 0.5 0.5 0.5
41 1 0.5 0.5 0.5
42 1 0.5 0.5 0.5
43 1 0.5 0.5 0.5
44 1 0.5 0.5 0.5
45 1 0.5 0.5 0.5
46 1 0.5 0.5 0.5
47 1 0.5 0.5 0.5
48 1 0.5 0.5 0.5
49 1 0.5 0.5 0.5
50 1 0.5 0.5 0.5
51 1 0.5 0.5 0.5
52 1 0.5 0.5 0.5
53 1 0.5 0.5 0.5
54 1 0.5 0.5 0.5
55 1 0.5 0.5 0.5
56 1 0.5 0.5 0.5
57 1 0.5 0.5 0.5
58 1 0.5 0.5 0.5
59 1 0.5 0.5 0.5
60 1 0.5 0.5 0.5
61 1 0.5 0.5 0.5
62 1 0.5 0.5 0.5
63 1 0.5 0.5 0.5
64 1 0.5 0.5 0.5
65 1 0.5 0.5 0.5
66 1 0.5 0.5 0.5
67 1 0.5 0.5 0.5
68 1 0.5 0.5 0.5
69 1 0.5 0.5 0.5
70 1 0.5 0.5 0.5
71 1 0.5 0.5 0.5
72 1 0.5 0.5 0.5
73 1 0.5 0.5 0.5
74 1 0.5 0.5 0.5
75 1 0.5 0.5 0.5
76 1 0.5 0.5 0.5
77 1 0.5 0.5 0.5
78 1 0.5 0.5 0.5
79 1 0.5 0.5 0.5
80 1 0.5 0.5 0.5
81 1 0.5 0.5 0.5
82 1 0.5 0.5 0.5
83 1 0.5 0.5 0.5
84 1 0.5 0.5 0.5
85 1 0.5 0.5 0.5
86 1 0.5 0.5 0.5
87 1 0.5 0.5 0.5
88 1 0.5 0.5 0.5
89 1 0.5 0.5 0.5
90 1 0.5 0.5 0.5
91 1 0.5 0.5 0.5
92 1 0.5 0.5 0.5
93 1 0.5 0.5 0.5
94 1 0.5 0.5 0.5
95 1 0.5 0.5 0.5
96 1 0.5 0.5 0.5
97 1 0.5 0.5 0.5
98 1 0.5 0.5 0.5
99 1 0.5 0.5 0.5
100 1 0.5 0.5 0.5
101 1 0.5 0.5 0.5
102 1 0.5 0.5 0.5
103 1 0.5 0.5 0.5
104 1 0.5 0.5 0.5
105 1 0.5 0.5 0.5
106 1 0.5 0.5 0.5
107 1 0.5 0.5 0.5
108 1 0.5 0.5 0.5
109 1 0.5 0.5 0.5
110 1 0.5 0.5 0.5
111 1 0.5 0.5 0.5
112 1 0.5 0.5 0.5
113 1 0.5 0.5 0.5
114 1 0.5 0.5 0.5
115 1 0.5 0.5 0.5
116 1 0.5 0.5 0.5
117 1 0.5 0.5 0.5
118 1 0.5 0.5 0.5
119 1 0.5 0.5 0.5
120 1 0.5 0.5 0.5
121 1 0.5 0.5 0.5
122 1 0.5 0.5 0.5
123 1 0.5 0.5 0.5
124 1 0.5 0.5 0.5
125 1 0.5 0.5 0.5
126 1 0.5 0.5 0.5
127 1 0.5 0.5 0.5
128 1 0.5 0.5 0.5
129 1 0.5 0.5 0.5
130 1 0.5 0.5 0.5
131 1 0.5 0.5 0.5
132 1 0.5 0.5 0.5
133 1 0.5 0.5 0.5
134 1 0.5 0.5 0.5
135 1 0.5 0.5 0.5
136 1 0.5 0.5 0.5
137 1 0.5 0.5 0.5
138 1 0.5 0.5 0.5
139 1 0.5 0.5 0.5
140 1 0.5 0.5 0.5
141 1 0.5 0.5 0.5
142 1 0.5 0.5 0.5
143 1 0.5 0.5 0.5
144 1 0.5 0.5 0.5
145 1 0.5 0.5 0.5
146 1 0.5 0.5 0.5
147 1 0.5 0.5 0.5
148 1 0.5 0.5 0.5
149 1 0.5 0.5 0.5
150 1 0.5 0.5 0.5
151 1 0.5 0.5 0.5
152 1 0.5 0.5 0.5
153 1 0.5 0.5 0.5
154 1 0.5 0.5 0.5
155 1 0.5 0.5 0.5
156 1 0.5 0.5 0.5
157 1 0.5 0.5 0.5
158 1 0.5 0.5 0.5
159 1 0.5 0.5 0.5
160 1 0.5 0.5 0.5
161 1 0.5 0.5 0.5
162 1 0.5 0.5 0.5
163 1 0.5 0.5 0.5
164 1 0.5 0.5 0.5
165 1 0.5 0.5 0.5
166 1 0.5 0.5 0.5
167 1 0.5 0.5 0.5
168 1 0.5 0.5 0.5
169 1 0.5 0.5 0.5
170 1 0.5 0.5 0.5
171 1 0.5 0.5 0.5
172 1 0.5 0.5 0.5
173 1 0.5 0.5 0.5
174 1 0.5 0.5 0.5
175 1 0.5 0.5 0.5
176 1 0.5 0.5 0.5
177 1 0.5 0.5 0.5
178 1 0.5 0.5 0.5
179 1 0.5 0.5 0.5
180 1 0.5 0.5 0.5
181 1 0.5 0.5 0.5
182 1 0.5 0.5 0.5
183 1 0.5 0.5 0.5
184 1 0.5 0.5 0.5
185 1 0.5 0.5 0.5
186 1 0.5 0.5 0.5
187 1 0.5 0.5 0.5
188 1 0.5 0.5 0.5
189 1 0.5 0.5 0.5
190 1 0.5 0.5 0.5
191 1 0.5 0.5 0.5
192 1 0.5 0.5 0.5
193 1 0.5 0.5 0.5
194 1 0.5 0.5 0.5
195 1 0.5 0.5 0.5
196 1 0.5 0.5 0.5
197 1 0.5 0.5 0.5
198 1 0.5 0.5 0.5
199 1 0.5 0.5 0.5
200 1 0.5 0.5 0.5
201 1 0.5 0.5 0.5
202 1 0.5 0.5 0.5
203 1 0.5 0.5 0.5
204 1 0.5 0.5 0.5
205 1 0.5 0.5 0.5
206 1 0.5 0.5 0.5
207 1 0.5 0.5 0.5
208 1 0.5 0.5 0.5
209 1 0.5 0.5 0.5
210 1 0.5 0.5 0.5
211 1 0.5 0.5 0.5
212 1 0.5 0.5 0.5
213 1 0.5 0.5 0.5
214 1 0.5 0.5 0.5
215 1 0.5 0.5 0.5
216 1 0.5 0.5 0.5
217 1 0.5 0.5 0.5
218 1 0.5 0.5 0.5
219 1 0.5 0.5 0.5
220 1 0.5 0.5 0.5
221 1 0.5 0.5 0.5
222 1 0.5 0.5 0.5
223 1 0.5 0.5 0.5
224 1 0.5 0.5 0.5
225 1 0.5 0.5 0.5
226 1 0.5 0.5 0.5
227 1 0.5 0.5 0.5
228 1 0.5 0.5 0.5
229 1 0.5 0.5 0.5
230 1 0.5 0.5 0.5
231 1 0.5 0.5 0.5
232 1 0.5 0.5 0.5
233 1 0.5 0.5 0.5
234 1 0.5 0.5 0.5
235 1 0.5 0.5 0.5
236 1 0.5 0.5 0.5
237 1 0.5 0.5 0.5
238 1 0.5 0.5 0.5
239 1 0.5 0.5 0.5
240 1 0.5 0.5 0.5
241 1 0.5 0.5 0.5
242 1 0.5 0.5 0.5
243 1 0.5 0.5 0.5
244 1 0.5 0.5 0.5
245 1 0.5 0.5 0.5
246 1 0.5 0.5 0.5
247 1 0.5 0.5 0.5
248 1 0.5 0.5 0.5
249 1 0.5 0.5 0.5
250 1 0.5 0.5 0.5
251 1 0.5 0.5 0.5
252 1 0.5 0.5 0.5
253 1 0.5 0.5 0.5
254 1 0.5 0.5 0.5
255 1 0.5 0.5 0.5
256 1 0.5 0.5 0.5
257 1 0.5 0.5 0.5
258 1 0.5 0.5 0.5
259 1 0.5 0.5 0.5
260 1 0.5 0.5 0.5
261 1 0.5 0.5 0.5
262 1 0.5 0.5 0.5
263 1 0.5 0.5 0.5
264 1 0.5 0.5 0.5
265 1 0.5 0.5 0.5
266 1 0.5 0.5 0.5
267 1 0.5 0.5 0.5
268 1 0.5 0.5 0.5
269 1 0.5 0.5 0.5
270 1 0.5 0.5 0.5
271 1 0.5 0.5 0.5
272 1 0.5 0.5 0.5
273 1 0.5 0.5 0.5
274 1 0.5 0.5 0.5
275 1 0.5 0.5 0.5
276 1 0.5 0.5 0.5
277 1 0.5 0.5 0.5
278 1 0.5 0.5 0.5
279 1 0.5 0.5 0.5
280 1 0.5 0.5 0.5
281 1 0.5 0.5 0.5
282 1 0.5 0.5 0.5
283 1 0.5 0.5 0.5
284 1 0.5 0.5 0.5
285 1 0.5 0.5 0.5
286 1 0.5 0.5 0.5
287 1 0.5 0.5 0.5
288 1 0.5 0.5 0.5
289 1 0.5 0.5 0.5
290 1 0.5 0.5 0.5
291 1 0.5 0.5 0.5
292 1 0.5 0.5 0.5
293 1 0.5 0.5 0.5
294 1 0.5 0.5 0.5
295 1 0.5 0.5 0.5
296 1 0.5 0.5 0.5
297 1 0.5 0.5 0.5
298 1 0.5 0.5 0.5
299 1 0.5 0.5 0.5
300 1 0.5 0.5 0.5
301 1 0.5 0.5 0.5
302 1 0.5 0.5 0.5
303 1 0.5 0.5 0.5
304 1 0.5 0.5 0.5
305 1 0.5 0.5 0.5
306 1 0.5 0.5 0.5
307 1 0.5 0.5 0.5
308 1 0.5 0.5 0.5
309 1 0.5 0.5 0.5
310 1 0.5 0.5 0.5
311 1 0.5 0.5 0.5
312 1 0.5 0.5 0.5
313 1 0.5 0.5 0.5
314 1 0.5 0.5 0.5
315 1 0.5 0.5 0.5
316 1 0.5 0.5 0.5
317 1 0.5 0.5 0.5
318 1 0.5 0.5 0.5
319 1 0.5 0.5 0.5
320 1 0.5 0.5 0.5
321 1 0.5 0.5 0.5
322 1 0.5 0.5 0.5
323 1 0.5 0.5 0.5
324 1 0.5 0.5 0.5
325 1 0.5 0.5 0.5
326 1 0.5 0.5 0.5
327 1 0.5 0.5 0.5
328 1 0.5 0.5 0.5
329 1 0.5 0.5 0.5
330 1 0.5 0.5 0.5
331 1 0.5 0.5 0.5
332 1 0.5 0.5 0.5
333 1 0.5 0.5 0.5
334 1 0.5 0.5 0.5
335 1 0.5 0.5 0.5
336 1 0.5 0.5 0.5
337 1 0.5 0.5 0.5
338 1 0.5 0.5 0.5
339 1 0.5 0.5 0.5
340 1 0.5 0.5 0.5
341 1 0.5 0.5 0.5
342 1 0.5 0.5 0.5
343 1 0.5 0.5 0.5
344 1 0.5 0.5 0.5
345 1 0.5 0.5 0.5
346 1 0.5 0.5 0.5
347 1 0.5 0.5 0.5
348 1 0.5 0.5 0.5
349 1 0.5 0.5 0.5
350 1 0.5 0.5 0.5
351 1 0.5 0.5 0.5
352 1 0.5 0.5 0.5
353 1 0.5 0.5 0.5
354 1 0.5 0.5 0.5
355 1 0.5 0.5 0.5
356 1 0.5 0.5 0.5
357 1 0.5 0.5 0.5
358 1 0.5 0.5 0.5
359 1 0.5 0.5 0.5
360 1 0.5 0.5 0.5
361 1 0.5 0.5 0.5
362 1 0.5 0.5 0.5
363 1 0.5 0.5 0.5
364 1 0.5 0.5 0.5
365 1 0.5 0.5 0.5
366 1 0.5 0.5 0.5
367 1 0.5 0.5 0.5
368 1 0.5 0.5 0.5
369 1 0.5 0.5 0.5
370 1 0.5 0.5 0.5
371 1 0.5 0.5 0.5
372 1 0.5 0.5 0.5
373 1 0.5 0.5 0.5
374 1 0.5 0.5 0.5
375 1 0.5 0.5 0.5
376 1 0.5 0.5 0.5
377 1 0.5 0.5 0.5
378 1 0.5 0.5 0.5
379 1 0.5 0.5 0.5
380 1 0.5 0.5 0.5
381 1 0.5 0.5 0.5
382 1 0.5 0.5 0.5
383 1 0.5 0.5 0.5
384 1 0.5 0.5 0.5
385 1 0.5 0.5 0.5
386 1 0.5 0.5 0.5
387 1 0.5 0.5 0.5
388 1 0.5 0.5 0.5
389 1 0.5 0.5 0.5
390 1 0.5 0.5 0.5
391 1 0.5 0.5 0.5
392 1 0.5 0.5 0.5
393 1 0.5 0.5 0.5
394 1 0.5 0.5 0.5
395 1 0.5 0.5 0.5
396 1 0.5 0.5 0.5
397 1 0.5 0.5 0.5
398 1 0.5 0.5 0.5
399 1 0.5 0.5 0.5
400 1 0.5 0.5 0.5
401 1 0.5 0.5 0.5
402 1 0.5 0.5 0.5
403 1 0.5 0.5 0.5
404 1 0.5 0.5 0.5
405 1 0.5 0.5 0.5
406 1 0.5 0.5 0.5
407 1 0.5 0.5 0.5
408 1 0.5 0.5 0.5
409 1 0.5 0.5 0.5
410 1 0.5 0.5 0.5
411 1 0.5 0.5 0.5
412 1 0.5 0.5 0.5
413 1 0.5 0.5 0.5
414 1 0.5 0.5 0.5
415 1 0.5 0.5 0.5
416 1 0.5 0.5 0.5
417 1 0.5 0.5 0.5
418 1 0.5 0.5 0.5
419 1 0.5 0.5 0.5
420 1 0.5 0.5 0.5
421 1 0.5 0.5 0.5
422 1 0.5 0.5 0.5
423 1 0.5 0.5 0.5
424 1 0.5 0.5 0.5
425 1 0.5 0.5 0.5
426 1 0.5 0.5 0.5
427 1 0.5 0.5 0.5
428 1 0.5 0.5 0.5
429 1 0.5 0.5 0.5
430 1 0.5 0.5 0.5
431 1 0.5 0.5 0.5
432 1 0.5 0.5 0.5
433 1 0.5 0.5 0.5
434 1 0.5 0.5 0.5
435 1 0.5 0.5 0.5
436 1 0.5 0.5 0.5
437 1 0.5 0.5 0.5
438 1 0.5 0.5 0.5
439 1 0.5 0.5 0.5
440 1 0.5 0.5 0.5
441 1 0.5 0.5 0.5
442 1 0.5 0.5 0.5
443 1 0.5 0.5 0.5
444 1 0.5 0.5 0.5
445 1 0.5 0.5 0.5
446 1 0.5 0.5 0.5
447 1 0.5 0.5 0.5
448 1 0.5 0.5 0.5
449 1 0.5 0.5 0.5
450 1 0.5 0.5 0.5
451 1 0.5 0.5 0.5
452 1 0.5 0.5 0.5
453 1 0.5 0.5 0.5
454 1 0.5 0.5 0.5
455 1 0.5 0.5 0.5
456 1 0.5 0.5 0.5
457 1 0.5 0.5 0.5
458 1 0.5 0.5 0.5
459 1 0.5 0.5 0.5
460 1 0.5 0.5 0.5
461 1 0.5 0.5 0.5
462 1 0.5 0.5 0.5
463 1 0.5 0.5 0.5
464 1 0.5 0.5 0.5
465 1 0.5 0.5 0.5
466 1 0.5 0.5 0.5
467 1 0.5 0.5 0.5
468 1 0.5 0.5 0.5
469 1 0.5 0.5 0.5
470 1 0.5 0.5 0.5
471 1 0.5 0.5 0.5
472 1 0.5 0.5 0.5
473 1 0.5 0.5 0.5
474 1 0.5 0.5 0.5
475 1 0.5 0.5 0.5
476 1 0.5 0.5 0.5
477 1 0.5 0.5 0.5
478 1 0.5 0.5 0.5
479 1 0.5 0.5 0.5
480 1 0.5 0.5 0.5
481 1 0.5 0.5 0.5
482 1 0.5 0.5 0.5
483 1 0.5 0.5 0.5
484 1 0.5 0.5 0.5
485 1 0.5 0.5 0.5
486 1 0.5 0.5 0.5
487 1 0.5 0.5 0.5
488 1 0.5 0.5 0.5
489 1 0.5 0.5 0.5
490 1 0.5 0.5 0.5
491 1 0.5 0.5 0.5
492 1 0.5 0.5 0.5
493 1 0.5 0.5 0.5
494 1 0.5 0.5 0.5
495 1 0.5 0.5 0.5
496 1 0.5 0.5 0.5
497 1 0.5 0.5 0.5
498 1 0.5 0.5 0.5
499 1 0.5 0.5 0.5
500 1 0.5 0.5 0.5
501 1 0.5 0.5 0.5
502 1 0.5 0.5 0.5
503 1 0.5 0.5 0.5
504 1 0.5 0.5 0.5
505 1 0.5 0.5 0.5
506 1 0.5 0.5 0.5
507 1 0.5 0.5 0.5
508 1 0.5 0.5 0.5
509 1 0.5 0.5 0.5
510 1 0.5 0.5 0.5
511 1 0.5 0.5 0.5
512 1 0.5 0.5 0.5
513 1 0.5 0.5 0.5
514 1 0.5 0.5 0.5
515 1 0.5 0.5 0.5
516 1 0.5 0.5 0.5
517 1 0.5 0.5 0.5
518 1 0.5 0.5 0.5