ITEM: TIMESTEP
0
ITEM: NUMBER OF ATOMS
2424
ITEM: BOX BOUNDS pp pp pp
-50 50
-50 50
-50 50
ITEM: ATOMS id type xs ys zs
1276 2 0.511469 0.423786 0.439134
1277 2 0.505811 0.428925 0.432477
1278 2 0.5 0.434874 0.426492
1285 2 0.5 0.423069 0.438955
1286 2 0.494189 0.428925 0.432477
1293 2 0.488531 0.423786 0.439134
1431 2 0.552548 0.438687 0.444104
1436 2 0.543125 0.4338 0.441668
1437 2 0.547022 0.442393 0.435851
1440 2 0.533175 0.429521 0.440193
1441 2 0.537605 0.437817 0.433941
1444 2 0.527681 0.433806 0.432941
1445 2 0.531716 0.442671 0.426841
1447 2 0.521944 0.438896 0.426315
1459 2 0.478056 0.438896 0.426315
1460 2 0.468284 0.442671 0.426841
1467 2 0.472319 0.433806 0.432941
1468 2 0.462395 0.437817 0.433941
1469 2 0.452978 0.442393 0.435851
1474 2 0.466825 0.429521 0.440193
1475 2 0.456875 0.4338 0.441668
1476 2 0.447452 0.438687 0.444104
2381 2 0.477352 0.425992 0.439545
2382 2 0.482728 0.430512 0.432785
2383 2 0.48838 0.435821 0.426578
2384 2 0.4941 0.441731 0.421166
2385 2 0.5059 0.441731 0.421166
2386 2 0.51162 0.435821 0.426578
2387 2 0.517272 0.430512 0.432785
2388 2 0.522648 0.425992 0.439545
1455 2 0.440193 0.466825 0.429521
1456 2 0.432941 0.472319 0.433806
1457 2 0.426315 0.478056 0.438896
1463 2 0.441668 0.456875 0.4338
1464 2 0.433941 0.462395 0.437817
1465 2 0.426841 0.468284 0.442671
1470 2 0.444104 0.447452 0.438687
1471 2 0.435851 0.452978 0.442393
1759 2 0.439134 0.488531 0.423786
1760 2 0.438955 0.5 0.423069
1761 2 0.439134 0.511469 0.423786
1762 2 0.432477 0.494189 0.428925
1763 2 0.432477 0.505811 0.428925
1764 2 0.426492 0.5 0.434874
2016 2 0.444104 0.552548 0.438687
2021 2 0.441668 0.543125 0.4338
2022 2 0.435851 0.547022 0.442393
2025 2 0.440193 0.533175 0.429521
2026 2 0.433941 0.537605 0.437817
2029 2 0.432941 0.527681 0.433806
2030 2 0.426841 0.531716 0.442671
2032 2 0.426315 0.521944 0.438896
2215 2 0.421166 0.5059 0.441731
2216 2 0.426578 0.51162 0.435821
2217 2 0.432785 0.517272 0.430512
2218 2 0.439545 0.522648 0.425992
2305 2 0.421166 0.4941 0.441731
2306 2 0.426578 0.48838 0.435821
2307 2 0.432785 0.482728 0.430512
2308 2 0.439545 0.477352 0.425992
1213 2 0.5 0.448369 0.416459
1220 2 0.5 0.551631 0.416459
1438 2 0.549963 0.451703 0.430603
1439 2 0.551958 0.461662 0.426004
1442 2 0.541102 0.44697 0.428284
1443 2 0.543597 0.456807 0.423329
1446 2 0.534769 0.452363 0.421472
1448 2 0.525535 0.448298 0.420504
1449 2 0.515934 0.444722 0.420406
1450 2 0.484066 0.444722 0.420406
1451 2 0.474465 0.448298 0.420504
1452 2 0.465231 0.452363 0.421472
1453 2 0.456403 0.456807 0.423329
1454 2 0.448042 0.461662 0.426004
1461 2 0.458898 0.44697 0.428284
1462 2 0.450037 0.451703 0.430603
1678 2 0.553577 0.516863 0.41944
1679 2 0.545732 0.522038 0.41593
1680 2 0.537367 0.526882 0.413248
1681 2 0.528577 0.531425 0.411453
1682 2 0.519373 0.53557 0.410533
1683 2 0.509848 0.539344 0.410558
1686 2 0.553856 0.505657 0.418071
1687 2 0.546086 0.511064 0.413986
1688 2 0.537717 0.516237 0.410789
1689 2 0.528898 0.521082 0.408538
1690 2 0.519602 0.525613 0.407239
1691 2 0.50997 0.529759 0.406942
1693 2 0.553856 0.494343 0.418071
1694 2 0.546189 0.5 0.413332
1695 2 0.537893 0.505417 0.409559
1696 2 0.529061 0.510586 0.40679
1697 2 0.519745 0.515425 0.405042
1698 2 0.510019 0.519956 0.404364
1699 2 0.553577 0.483137 0.41944
1700 2 0.546086 0.488936 0.413986
1701 2 0.537893 0.494583 0.409559
1702 2 0.529128 0.5 0.406211
1703 2 0.519814 0.505173 0.403951
1704 2 0.510081 0.510019 0.402826
1705 2 0.545732 0.477962 0.41593
1706 2 0.537717 0.483763 0.410789
1707 2 0.529061 0.489414 0.40679
1708 2 0.519814 0.494827 0.403951
1709 2 0.510074 0.5 0.40231
1710 2 0.537367 0.473118 0.413248
1711 2 0.528898 0.478918 0.408538
1712 2 0.519745 0.484575 0.405042
1713 2 0.510081 0.489981 0.402826
1714 2 0.528577 0.468575 0.411453
1715 2 0.519602 0.474387 0.407239
1716 2 0.510019 0.480044 0.404364
1717 2 0.519373 0.46443 0.410533
1718 2 0.50997 0.470241 0.406942
1719 2 0.509848 0.460656 0.410558
1720 2 0.490152 0.460656 0.410558
1721 2 0.49003 0.470241 0.406942
1722 2 0.489981 0.480044 0.404364
1723 2 0.489919 0.489981 0.402826
1724 2 0.489926 0.5 0.40231
1725 2 0.489919 0.510019 0.402826
1726 2 0.489981 0.519956 0.404364
1727 2 0.49003 0.529759 0.406942
1728 2 0.490152 0.539344 0.410558
1729 2 0.480627 0.46443 0.410533
1730 2 0.480398 0.474387 0.407239
1731 2 0.480255 0.484575 0.405042
1732 2 0.480186 0.494827 0.403951
1733 2 0.480186 0.505173 0.403951
1734 2 0.480255 0.515425 0.405042
1735 2 0.480398 0.525613 0.407239
1736 2 0.480627 0.53557 0.410533
1737 2 0.471423 0.468575 0.411453
1738 2 0.471102 0.478918 0.408538
1739 2 0.470939 0.489414 0.40679
1740 2 0.470872 0.5 0.406211
1741 2 0.470939 0.510586 0.40679
1742 2 0.471102 0.521082 0.408538
1743 2 0.471423 0.531425 0.411453
1744 2 0.462633 0.473118 0.413248
1745 2 0.462283 0.483763 0.410789
1746 2 0.462107 0.494583 0.409559
1747 2 0.462107 0.505417 0.409559
1748 2 0.462283 0.516237 0.410789
1749 2 0.462633 0.526882 0.413248
1750 2 0.454268 0.477962 0.41593
1751 2 0.453914 0.488936 0.413986
1752 2 0.453811 0.5 0.413332
1753 2 0.453914 0.511064 0.413986
1754 2 0.454268 0.522038 0.41593
1755 2 0.446423 0.483137 0.41944
1756 2 0.446144 0.494343 0.418071
1757 2 0.446144 0.505657 0.418071
1758 2 0.446423 0.516863 0.41944
1975 2 0.551958 0.538338 0.426004
1976 2 0.549963 0.548297 0.430603
1980 2 0.543597 0.543193 0.423329
1981 2 0.541102 0.55303 0.428284
1984 2 0.534769 0.547637 0.421472
1987 2 0.525535 0.551702 0.420504
1989 2 0.515934 0.555278 0.420406
1990 2 0.484066 0.555278 0.420406
1999 2 0.474465 0.551702 0.420504
2007 2 0.465231 0.547637 0.421472
2008 2 0.458898 0.55303 0.428284
2014 2 0.456403 0.543193 0.423329
2015 2 0.450037 0.548297 0.430603
2020 2 0.448042 0.538338 0.426004
2219 2 0.447027 0.527882 0.422146
2220 2 0.454885 0.532739 0.419145
2221 2 0.463355 0.537363 0.416898
2222 2 0.472054 0.541541 0.415513
2223 2 0.481199 0.545378 0.414958
2224 2 0.490453 0.548722 0.415266
2225 2 0.5 0.457179 0.41162
2226 2 0.5 0.466242 0.407776
2227 2 0.5 0.47573 0.404838
2228 2 0.5 0.485285 0.402901
2229 2 0.5 0.495143 0.401912
2230 2 0.5 0.504857 0.401912
2231 2 0.5 0.514715 0.402901
2232 2 0.5 0.52427 0.404838
2233 2 0.5 0.533758 0.407776
2234 2 0.5 0.542821 0.41162
2235 2 0.509547 0.548722 0.415266
2236 2 0.518801 0.545378 0.414958
2237 2 0.527946 0.541541 0.415513
2238 2 0.536645 0.537363 0.416898
2239 2 0.545115 0.532739 0.419145
2240 2 0.552973 0.527882 0.422146
2309 2 0.447027 0.472118 0.422146
2310 2 0.454885 0.467261 0.419145
2311 2 0.463355 0.462637 0.416898
2312 2 0.472054 0.458459 0.415513
2313 2 0.481199 0.454622 0.414958
2314 2 0.490453 0.451278 0.415266
2315 2 0.509547 0.451278 0.415266
2316 2 0.518801 0.454622 0.414958
2317 2 0.527946 0.458459 0.415513
2318 2 0.536645 0.462637 0.416898
2319 2 0.545115 0.467261 0.419145
2320 2 0.552973 0.472118 0.422146
1420 2 0.573159 0.468284 0.442671
1421 2 0.573685 0.478056 0.438896
1426 2 0.564149 0.452978 0.442393
1427 2 0.566059 0.462395 0.437817
1428 2 0.567059 0.472319 0.433806
1432 2 0.555896 0.447452 0.438687
1433 2 0.558332 0.456875 0.4338
1434 2 0.559807 0.466825 0.429521
1675 2 0.573508 0.5 0.434874
1676 2 0.567523 0.505811 0.428925
1677 2 0.560866 0.511469 0.423786
1684 2 0.567523 0.494189 0.428925
1685 2 0.561045 0.5 0.423069
1692 2 0.560866 0.488531 0.423786
1954 2 0.573685 0.521944 0.438896
1955 2 0.573159 0.531716 0.442671
1962 2 0.567059 0.527681 0.433806
1963 2 0.566059 0.537605 0.437817
1964 2 0.564149 0.547022 0.442393
1969 2 0.559807 0.533175 0.429521
1970 2 0.558332 0.543125 0.4338
1971 2 0.555896 0.552548 0.438687
2241 2 0.560455 0.522648 0.425992
2242 2 0.567215 0.517272 0.430512
2243 2 0.573422 0.51162 0.435821
2244 2 0.578834 0.5059 0.441731
2321 2 0.560455 0.477352 0.425992
2322 2 0.567215 0.482728 0.430512
2323 2 0.573422 0.48838 0.435821
2324 2 0.578834 0.4941 0.441731
1972 2 0.552548 0.561313 0.444104
1977 2 0.547022 0.557607 0.435851
1978 2 0.543125 0.5662 0.441668
1982 2 0.537605 0.562183 0.433941
1983 2 0.533175 0.570479 0.440193
1985 2 0.531716 0.557329 0.426841
1986 2 0.527681 0.566194 0.432941
1988 2 0.521944 0.561104 0.426315
1991 2 0.478056 0.561104 0.426315
1992 2 0.472319 0.566194 0.432941
1993 2 0.466825 0.570479 0.440193
2000 2 0.468284 0.557329 0.426841
2001 2 0.462395 0.562183 0.433941
2002 2 0.456875 0.5662 0.441668
2009 2 0.452978 0.557607 0.435851
2010 2 0.447452 0.561313 0.444104
2119 2 0.511469 0.576214 0.439134
2120 2 0.5 0.576931 0.438955
2121 2 0.488531 0.576214 0.439134
2122 2 0.505811 0.571075 0.432477
2123 2 0.494189 0.571075 0.432477
2124 2 0.5 0.565126 0.426492
2141 2 0.477352 0.574008 0.439545
2142 2 0.482728 0.569488 0.432785
2143 2 0.48838 0.564179 0.426578
2144 2 0.4941 0.558269 0.421166
2145 2 0.5059 0.558269 0.421166
2146 2 0.51162 0.564179 0.426578
2147 2 0.517272 0.569488 0.432785
2148 2 0.522648 0.574008 0.439545
1316 2 0.438896 0.426315 0.521944
1317 2 0.433806 0.432941 0.527681
1318 2 0.429521 0.440193 0.533175
1325 2 0.442671 0.426841 0.531716
1326 2 0.437817 0.433941 0.537605
1327 2 0.4338 0.441668 0.543125
1334 2 0.442393 0.435851 0.547022
1335 2 0.438687 0.444104 0.552548
1477 2 0.438687 0.444104 0.447452
1482 2 0.442393 0.435851 0.452978
1483 2 0.4338 0.441668 0.456875
1487 2 0.437817 0.433941 0.462395
1488 2 0.429521 0.440193 0.466825
1490 2 0.442671 0.426841 0.468284
1491 2 0.433806 0.432941 0.472319
1493 2 0.438896 0.426315 0.478056
1495 2 0.434874 0.426492 0.5
1496 2 0.428925 0.432477 0.494189
1497 2 0.423786 0.439134 0.488531
1504 2 0.428925 0.432477 0.505811
1505 2 0.423069 0.438955 0.5
1512 2 0.423786 0.439134 0.511469
2295 2 0.441731 0.421166 0.4941
2296 2 0.435821 0.426578 0.48838
2297 2 0.430512 0.432785 0.482728
2298 2 0.425992 0.439545 0.477352
2371 2 0.425992 0.439545 0.522648
2372 2 0.430512 0.432785 0.517272
2373 2 0.435821 0.426578 0.51162
2374 2 0.441731 0.421166 0.5059
1217 2 0.551631 0.416459 0.5
1218 2 0.448369 0.416459 0.5
1225 2 0.460656 0.410558 0.509848
1226 2 0.46443 0.410533 0.519373
1227 2 0.468575 0.411453 0.528577
1228 2 0.473118 0.413248 0.537367
1229 2 0.477962 0.41593 0.545732
1230 2 0.483137 0.41944 0.553577
1234 2 0.470241 0.406942 0.50997
1235 2 0.474387 0.407239 0.519602
1236 2 0.478918 0.408538 0.528898
1237 2 0.483763 0.410789 0.537717
1238 2 0.488936 0.413986 0.546086
1239 2 0.494343 0.418071 0.553856
1242 2 0.480044 0.404364 0.510019
1243 2 0.484575 0.405042 0.519745
1244 2 0.489414 0.40679 0.529061
1245 2 0.494583 0.409559 0.537893
1246 2 0.5 0.413332 0.546189
1247 2 0.505657 0.418071 0.553856
1249 2 0.489981 0.402826 0.510081
1250 2 0.494827 0.403951 0.519814
1251 2 0.5 0.406211 0.529128
1252 2 0.505417 0.409559 0.537893
1253 2 0.511064 0.413986 0.546086
1254 2 0.516863 0.41944 0.553577
1255 2 0.5 0.40231 0.510074
1256 2 0.505173 0.403951 0.519814
1257 2 0.510586 0.40679 0.529061
1258 2 0.516237 0.410789 0.537717
1259 2 0.522038 0.41593 0.545732
1260 2 0.510019 0.402826 0.510081
1261 2 0.515425 0.405042 0.519745
1262 2 0.521082 0.408538 0.528898
1263 2 0.526882 0.413248 0.537367
1264 2 0.519956 0.404364 0.510019
1265 2 0.525613 0.407239 0.519602
1266 2 0.531425 0.411453 0.528577
1267 2 0.529759 0.406942 0.50997
1268 2 0.53557 0.410533 0.519373
1269 2 0.539344 0.410558 0.509848
1270 2 0.539344 0.410558 0.490152
1271 2 0.53557 0.410533 0.480627
1272 2 0.531425 0.411453 0.471423
1273 2 0.526882 0.413248 0.462633
1274 2 0.522038 0.41593 0.454268
1275 2 0.516863 0.41944 0.446423
1279 2 0.529759 0.406942 0.49003
1280 2 0.525613 0.407239 0.480398
1281 2 0.521082 0.408538 0.471102
1282 2 0.516237 0.410789 0.462283
1283 2 0.511064 0.413986 0.453914
1284 2 0.505657 0.418071 0.446144
1287 2 0.519956 0.404364 0.489981
1288 2 0.515425 0.405042 0.480255
1289 2 0.510586 0.40679 0.470939
1290 2 0.505417 0.409559 0.462107
1291 2 0.5 0.413332 0.453811
1292 2 0.494343 0.418071 0.446144
1294 2 0.510019 0.402826 0.489919
1295 2 0.505173 0.403951 0.480186
1296 2 0.5 0.406211 0.470872
1297 2 0.494583 0.409559 0.462107
1298 2 0.488936 0.413986 0.453914
1299 2 0.483137 0.41944 0.446423
1300 2 0.5 0.40231 0.489926
1301 2 0.494827 0.403951 0.480186
1302 2 0.489414 0.40679 0.470939
1303 2 0.483763 0.410789 0.462283
1304 2 0.477962 0.41593 0.454268
1305 2 0.489981 0.402826 0.489919
1306 2 0.484575 0.405042 0.480255
1307 2 0.478918 0.408538 0.471102
1308 2 0.473118 0.413248 0.462633
1309 2 0.480044 0.404364 0.489981
1310 2 0.474387 0.407239 0.480398
1311 2 0.468575 0.411453 0.471423
1312 2 0.470241 0.406942 0.49003
1313 2 0.46443 0.410533 0.480627
1314 2 0.460656 0.410558 0.490152
1315 2 0.444722 0.420406 0.515934
1324 2 0.448298 0.420504 0.525535
1332 2 0.452363 0.421472 0.534769
1333 2 0.44697 0.428284 0.541102
1339 2 0.456807 0.423329 0.543597
1340 2 0.451703 0.430603 0.549963
1345 2 0.461662 0.426004 0.551958
1390 2 0.538338 0.426004 0.551958
1391 2 0.548297 0.430603 0.549963
1395 2 0.543193 0.423329 0.543597
1396 2 0.55303 0.428284 0.541102
1399 2 0.547637 0.421472 0.534769
1402 2 0.551702 0.420504 0.525535
1404 2 0.555278 0.420406 0.515934
1405 2 0.555278 0.420406 0.484066
1414 2 0.551702 0.420504 0.474465
1422 2 0.547637 0.421472 0.465231
1423 2 0.55303 0.428284 0.458898
1429 2 0.543193 0.423329 0.456403
1430 2 0.548297 0.430603 0.450037
1435 2 0.538338 0.426004 0.448042
1480 2 0.461662 0.426004 0.448042
1481 2 0.451703 0.430603 0.450037
1485 2 0.456807 0.423329 0.456403
1486 2 0.44697 0.428284 0.458898
1489 2 0.452363 0.421472 0.465231
1492 2 0.448298 0.420504 0.474465
1494 2 0.444722 0.420406 0.484066
2375 2 0.451278 0.415266 0.490453
2376 2 0.454622 0.414958 0.481199
2377 2 0.458459 0.415513 0.472054
2378 2 0.462637 0.416898 0.463355
2379 2 0.467261 0.419145 0.454885
2380 2 0.472118 0.422146 0.447027
2389 2 0.527882 0.422146 0.447027
2390 2 0.532739 0.419145 0.454885
2391 2 0.537363 0.416898 0.463355
2392 2 0.541541 0.415513 0.472054
2393 2 0.545378 0.414958 0.481199
2394 2 0.548722 0.415266 0.490453
2395 2 0.548722 0.415266 0.509547
2396 2 0.542821 0.41162 0.5
2397 2 0.545378 0.414958 0.518801
2398 2 0.533758 0.407776 0.5
2399 2 0.541541 0.415513 0.527946
2400 2 0.52427 0.404838 0.5
2401 2 0.537363 0.416898 0.536645
2402 2 0.514715 0.402901 0.5
2403 2 0.532739 0.419145 0.545115
2404 2 0.504857 0.401912 0.5
2405 2 0.527882 0.422146 0.552973
2406 2 0.495143 0.401912 0.5
2408 2 0.485285 0.402901 0.5
2410 2 0.47573 0.404838 0.5
2412 2 0.466242 0.407776 0.5
2414 2 0.457179 0.41162 0.5
2419 2 0.472118 0.422146 0.552973
2420 2 0.467261 0.419145 0.545115
2421 2 0.462637 0.416898 0.536645
2422 2 0.458459 0.415513 0.527946
2423 2 0.454622 0.414958 0.518801
2424 2 0.451278 0.415266 0.509547
1387 2 0.561313 0.444104 0.552548
1392 2 0.557607 0.435851 0.547022
1393 2 0.5662 0.441668 0.543125
1397 2 0.562183 0.433941 0.537605
1398 2 0.570479 0.440193 0.533175
1400 2 0.557329 0.426841 0.531716
1401 2 0.566194 0.432941 0.527681
1403 2 0.561104 0.426315 0.521944
1406 2 0.561104 0.426315 0.478056
1407 2 0.566194 0.432941 0.472319
1408 2 0.570479 0.440193 0.466825
1415 2 0.557329 0.426841 0.468284
1416 2 0.562183 0.433941 0.462395
1417 2 0.5662 0.441668 0.456875
1424 2 0.557607 0.435851 0.452978
1425 2 0.561313 0.444104 0.447452
1669 2 0.576214 0.439134 0.511469
1670 2 0.576931 0.438955 0.5
1671 2 0.576214 0.439134 0.488531
1672 2 0.571075 0.432477 0.505811
1673 2 0.571075 0.432477 0.494189
1674 2 0.565126 0.426492 0.5
2331 2 0.574008 0.439545 0.477352
2332 2 0.569488 0.432785 0.482728
2333 2 0.564179 0.426578 0.48838
2334 2 0.558269 0.421166 0.4941
2335 2 0.558269 0.421166 0.5059
2336 2 0.564179 0.426578 0.51162
2337 2 0.569488 0.432785 0.517272
2338 2 0.574008 0.439545 0.522648
1219 2 0.416459 0.5 0.551631
1224 2 0.416459 0.5 0.448369
1319 2 0.426004 0.448042 0.538338
1320 2 0.423329 0.456403 0.543193
1321 2 0.421472 0.465231 0.547637
1322 2 0.420504 0.474465 0.551702
1323 2 0.420406 0.484066 0.555278
1328 2 0.430603 0.450037 0.548297
1329 2 0.428284 0.458898 0.55303
1458 2 0.420406 0.484066 0.444722
1466 2 0.420504 0.474465 0.448298
1472 2 0.428284 0.458898 0.44697
1473 2 0.421472 0.465231 0.452363
1478 2 0.430603 0.450037 0.451703
1479 2 0.423329 0.456403 0.456807
1484 2 0.426004 0.448042 0.461662
1498 2 0.41944 0.446423 0.483137
1499 2 0.41593 0.454268 0.477962
1500 2 0.413248 0.462633 0.473118
1501 2 0.411453 0.471423 0.468575
1502 2 0.410533 0.480627 0.46443
1503 2 0.410558 0.490152 0.460656
1506 2 0.418071 0.446144 0.494343
1507 2 0.413986 0.453914 0.488936
1508 2 0.410789 0.462283 0.483763
1509 2 0.408538 0.471102 0.478918
1510 2 0.407239 0.480398 0.474387
1511 2 0.406942 0.49003 0.470241
1513 2 0.418071 0.446144 0.505657
1514 2 0.413332 0.453811 0.5
1515 2 0.409559 0.462107 0.494583
1516 2 0.40679 0.470939 0.489414
1517 2 0.405042 0.480255 0.484575
1518 2 0.404364 0.489981 0.480044
1519 2 0.41944 0.446423 0.516863
1520 2 0.413986 0.453914 0.511064
1521 2 0.409559 0.462107 0.505417
1522 2 0.406211 0.470872 0.5
1523 2 0.403951 0.480186 0.494827
1524 2 0.402826 0.489919 0.489981
1525 2 0.41593 0.454268 0.522038
1526 2 0.410789 0.462283 0.516237
1527 2 0.40679 0.470939 0.510586
1528 2 0.403951 0.480186 0.505173
1529 2 0.40231 0.489926 0.5
1530 2 0.413248 0.462633 0.526882
1531 2 0.408538 0.471102 0.521082
1532 2 0.405042 0.480255 0.515425
1533 2 0.402826 0.489919 0.510019
1534 2 0.411453 0.471423 0.531425
1535 2 0.407239 0.480398 0.525613
1536 2 0.404364 0.489981 0.519956
1537 2 0.410533 0.480627 0.53557
1538 2 0.406942 0.49003 0.529759
1539 2 0.410558 0.490152 0.539344
1765 2 0.410558 0.509848 0.460656
1766 2 0.410533 0.519373 0.46443
1767 2 0.411453 0.528577 0.468575
1768 2 0.413248 0.537367 0.473118
1769 2 0.41593 0.545732 0.477962
1770 2 0.41944 0.553577 0.483137
1774 2 0.406942 0.50997 0.470241
1775 2 0.407239 0.519602 0.474387
1776 2 0.408538 0.528898 0.478918
1777 2 0.410789 0.537717 0.483763
1778 2 0.413986 0.546086 0.488936
1779 2 0.418071 0.553856 0.494343
1782 2 0.404364 0.510019 0.480044
1783 2 0.405042 0.519745 0.484575
1784 2 0.40679 0.529061 0.489414
1785 2 0.409559 0.537893 0.494583
1786 2 0.413332 0.546189 0.5
1787 2 0.418071 0.553856 0.505657
1789 2 0.402826 0.510081 0.489981
1790 2 0.403951 0.519814 0.494827
1791 2 0.406211 0.529128 0.5
1792 2 0.409559 0.537893 0.505417
1793 2 0.413986 0.546086 0.511064
1794 2 0.41944 0.553577 0.516863
1795 2 0.40231 0.510074 0.5
1796 2 0.403951 0.519814 0.505173
1797 2 0.40679 0.529061 0.510586
1798 2 0.410789 0.537717 0.516237
1799 2 0.41593 0.545732 0.522038
1800 2 0.402826 0.510081 0.510019
1801 2 0.405042 0.519745 0.515425
1802 2 0.408538 0.528898 0.521082
1803 2 0.413248 0.537367 0.526882
1804 2 0.404364 0.510019 0.519956
1805 2 0.407239 0.519602 0.525613
1806 2 0.411453 0.528577 0.531425
1807 2 0.406942 0.50997 0.529759
1808 2 0.410533 0.519373 0.53557
1809 2 0.410558 0.509848 0.539344
1810 2 0.420406 0.515934 0.555278
1811 2 0.420504 0.525535 0.551702
1812 2 0.421472 0.534769 0.547637
1813 2 0.423329 0.543597 0.543193
1814 2 0.426004 0.551958 0.538338
1821 2 0.428284 0.541102 0.55303
1822 2 0.430603 0.549963 0.548297
2023 2 0.430603 0.549963 0.451703
2024 2 0.426004 0.551958 0.461662
2027 2 0.428284 0.541102 0.44697
2028 2 0.423329 0.543597 0.456807
2031 2 0.421472 0.534769 0.452363
2033 2 0.420504 0.525535 0.448298
2034 2 0.420406 0.515934 0.444722
2195 2 0.415266 0.509547 0.548722
2196 2 0.414958 0.518801 0.545378
2197 2 0.415513 0.527946 0.541541
2198 2 0.416898 0.536645 0.537363
2199 2 0.419145 0.545115 0.532739
2200 2 0.422146 0.552973 0.527882
2209 2 0.422146 0.552973 0.472118
2210 2 0.419145 0.545115 0.467261
2211 2 0.416898 0.536645 0.462637
2212 2 0.415513 0.527946 0.458459
2213 2 0.414958 0.518801 0.454622
2214 2 0.415266 0.509547 0.451278
2285 2 0.41162 0.5 0.542821
2286 2 0.407776 0.5 0.533758
2287 2 0.404838 0.5 0.52427
2288 2 0.402901 0.5 0.514715
2289 2 0.401912 0.5 0.504857
2290 2 0.401912 0.5 0.495143
2291 2 0.402901 0.5 0.485285
2292 2 0.404838 0.5 0.47573
2293 2 0.407776 0.5 0.466242
2294 2 0.41162 0.5 0.457179
2299 2 0.422146 0.447027 0.472118
2300 2 0.419145 0.454885 0.467261
2301 2 0.416898 0.463355 0.462637
2302 2 0.415513 0.472054 0.458459
2303 2 0.414958 0.481199 0.454622
2304 2 0.415266 0.490453 0.451278
2365 2 0.415266 0.490453 0.548722
2366 2 0.414958 0.481199 0.545378
2367 2 0.415513 0.472054 0.541541
2368 2 0.416898 0.463355 0.537363
2369 2 0.419145 0.454885 0.532739
2370 2 0.422146 0.447027 0.527882
1 1 0.5 0.5 0.5
2 1 0.5 0.5 0.5
3 1 0.5 0.5 0.5
4 1 0.5 0.5 0.5
5 1 0.5 0.5 0.5
6 1 0.5 0.5 0.5
7 1 0.5 0.5 0.5
8 1 0.5 0.5 0.5
9 1 0.5 0.5 0.5
10 1 0.5 0.5 0.5
11 1 0.5 0.5 0.5
12 1 0.5 0.5 0.5
13 1 0.5 0.5 0.5
14 1 0.5 0.5 0.5
15 1 0.5 0.5 0.5
16 1 0.5 0.5 0.5
17 1 0.5 0.5 0.5
18 1 0.5 0.5 0.5
19 1 0.5 0.5 0.5
20 1 0.5 0.5 0.5
21 1 0.5 0.5 0.5
22 1 0.5 0.5 0.5
23 1 0.5 0.5 0.5
24 1 0.5 0.5 0.5
25 1 0.5 0.5 0.5
26 1 0.5 0.5 0.5
27 1 0.5 0.5 0.5
28 1 0.5 0.5 0.5
29 1 0.5 0.5 0.5
30 1 0.5 0.5 0.5
31 1 0.5 0.5 0.5
32 1 0.5 0.5 0.5
33 1 0.5 0.5 0.5
34 1 0.5 0.5 0.5
35 1 0.5 0.5 0.5
36 1 0.5 0.5 0.5
37 1 0.5 0.5 0.5
38 1 0.5 0.5 0.5
39 1 0.5 0.5 0.5
40 1 0.5 0.5 0.5
41 1 0.5 0.5 0.5
42 1 0.5 0.5 0.5
43 1 0.5 0.5 0.5
44 1 0.5 0.5 0.5
45 1 0.5 0.5 0.5
46 1 0.5 0.5 0.5
47 1 0.5 0.5 0.5
48 1 0.5 0.5 0.5
49 1 0.5 0.5 0.5
50 1 0.5 0.5 0.5
51 1 0.5 0.5 0.5
52 1 0.5 0.5 0.5
53 1 0.5 0.5 0.5
54 1 0.5 0.5 0.5
55 1 0.5 0.5 0.5
56 1 0.5 0.5 0.5
57 1 0.5 0.5 0.5
58 1 0.5 0.5 0.5
59 1 0.5 0.5 0.5
60 1 0.5 0.5 0.5
61 1 0.5 0.5 0.5
62 1 0.5 0.5 0.5
63 1 0.5 0.5 0.5
64 1 0.5 0.5 0.5
65 1 0.5 0.5 0.5
66 1 0.5 0.5 0.5
67 1 0.5 0.5 0.5
68 1 0.5 0.5 0.5
69 1 0.5 0.5 0.5
70 1 0.5 0.5 0.5
71 1 0.5 0.5 0.5
72 1 0.5 0.5 0.5
73 1 0.5 0.5 0.5
74 1 0.5 0.5 0.5
75 1 0.5 0.5 0.5
76 1 0.5 0.5 0.5
77 1 0.5 0.5 0.5
78 1 0.5 0.5 0.5
79 1 0.5 0.5 0.5
80 1 0.5 0.5 0.5
81 1 0.5 0.5 0.5
82 1 0.5 0.5 0.5
83 1 0.5 0.5 0.5
84 1 0.5 0.5 0.5
85 1 0.5 0.5 0.5
86 1 0.5 0.5 0.5
87 1 0.5 0.5 0.5
88 1 0.5 0.5 0.5
89 1 0.5 0.5 0.5
90 1 0.5 0.5 0.5
91 1 0.5 0.5 0.5
92 1 0.5 0.5 0.5
93 1 0.5 0.5 0.5
94 1 0.5 0.5 0.5
95 1 0.5 0.5 0.5
96 1 0.5 0.5 0.5
97 1 0.5 0.5 0.5
98 1 0.5 0.5 0.5
99 1 0.5 0.5 0.5
100 1 0.5 0.5 0.5
101 1 0.5 0.5 0.5
102 1 0.5 0.5 0.5
103 1 0.5 0.5 0.5
104 1 0.5 0.5 0.5
105 1 0.5 0.5 0.5
106 1 0.5 0.5 0.5
107 1 0.5 0.5 0.5
108 1 0.5 0.5 0.5
109 1 0.5 0.5 0.5
110 1 0.5 0.5 0.5
111 1 0.5 0.5 0.5
112 1 0.5 0.5 0.5
113 1 0.5 0.5 0.5
114 1 0.5 0.5 0.5
115 1 0.5 0.5 0.5
116 1 0.5 0.5 0.5
117 1 0.5 0.5 0.5
118 1 0.5 0.5 0.5
119 1 0.5 0.5 0.5
120 1 0.5 0.5 0.5
121 1 0.5 0.5 0.5
122 1 0.5 0.5 0.5
123 1 0.5 0.5 0.5
124 1 0.5 0.5 0.5
125 1 0.5 0.5 0.5
126 1 0.5 0.5 0.5
127 1 0.5 0.5 0.5
128 1 0.5 0.5 0.5
129 1 0.5 0.5 0.5
130 1 0.5 0.5 0.5
131 1 0.5 0.5 0.5
132 1 0.5 0.5 0.5
133 1 0.5 0.5 0.5
134 1 0.5 0.5 0.5
135 1 0.5 0.5 0.5
136 1 0.5 0.5 0.5
137 1 0.5 0.5 0.5
138 1 0.5 0.5 0.5
139 1 0.5 0.5 0.5
140 1 0.5 0.5 0.5
141 1 0.5 0.5 0.5
142 1 0.5 0.5 0.5
143 1 0.5 0.5 0.5
144 1 0.5 0.5 0.5
145 1 0.5 0.5 0.5
146 1 0.5 0.5 0.5
147 1 0.5 0.5 0.5
148 1 0.5 0.5 0.5
149 1 0.5 0.5 0.5
150 1 0.5 0.5 0.5
151 1 0.5 0.5 0.5
152 1 0.5 0.5 0.5
153 1 0.5 0.5 0.5
154 1 0.5 0.5 0.5
155 1 0.5 0.5 0.5
156 1 0.5 0.5 0.5
157 1 0.5 0.5 0.5
158 1 0.5 0.5 0.5
159 1 0.5 0.5 0.5
160 1 0.5 0.5 0.5
161 1 0.5 0.5 0.5
162 1 0.5 0.5 0.5
163 1 0.5 0.5 0.5
164 1 0.5 0.5 0.5
165 1 0.5 0.5 0.5
166 1 0.5 0.5 0.5
167 1 0.5 0.5 0.5
168 1 0.5 0.5 0.5
169 1 0.5 0.5 0.5
170 1 0.5 0.5 0.5
171 1 0.5 0.5 0.5
172 1 0.5 0.5 0.5
173 1 0.5 0.5 0.5
174 1 0.5 0.5 0.5
175 1 0.5 0.5 0.5
176 1 0.5 0.5 0.5
177 1 0.5 0.5 0.5
178 1 0.5 0.5 0.5
179 1 0.5 0.5 0.5
180 1 0.5 0.5 0.5
181 1 0.5 0.5 0.5
182 1 0.5 0.5 0.5
183 1 0.5 0.5 0.5
184 1 0.5 0.5 0.5
185 1 0.5 0.5 0.5
186 1 0.5 0.5 0.5
187 1 0.5 0.5 0.5
188 1 0.5 0.5 0.5
189 1 0.5 0.5 0.5
190 1 0.5 0.5 0.5
191 1 0.5 0.5 0.5
192 1 0.5 0.5 0.5
193 1 0.5 0.5 0.5
194 1 0.5 0.5 0.5
195 1 0.5 0.5 0.5
196 1 0.5 0.5 0.5
197 1 0.5 0.5 0.5
198 1 0.5 0.5 0.5
199 1 0.5 0.5 0.5
200 1 0.5 0.5 0.5
201 1 0.5 0.5 0.5
202 1 0.5 0.5 0.5
203 1 0.5 0.5 0.5
204 1 0.5 0.5 0.5
205 1 0.5 0.5 0.5
206 1 0.5 0.5 0.5
207 1 0.5 0.5 0.5
208 1 0.5 0.5 0.5
209 1 0.5 0.5 0.5
210 1 0.5 0.5 0.5
211 1 0.5 0.5 0.5
212 1 0.5 0.5 0.5
213 1 0.5 0.5 0.5
214 1 0.5 0.5 0.5
215 1 0.5 0.5 0.5
216 1 0.5 0.5 0.5
217 1 0.5 0.5 0.5
218 1 0.5 0.5 0.5
219 1 0.5 0.5 0.5
220 1 0.5 0.5 0.5
221 1 0.5 0.5 0.5
222 1 0.5 0.5 0.5
223 1 0.5 0.5 0.5
224 1 0.5 0.5 0.5
225 1 0.5 0.5 0.5
226 1 0.5 0.5 0.5
227 1 0.5 0.5 0.5
228 1 0.5 0.5 0.5
229 1 0.5 0.5 0.5
230 1 0.5 0.5 0.5
231 1 0.5 0.5 0.5
232 1 0.5 0.5 0.5
233 1 0.5 0.5 0.5
234 1 0.5 0.5 0.5
235 1 0.5 0.5 0.5
236 1 0.5 0.5 0.5
237 1 0.5 0.5 0.5
238 1 0.5 0.5 0.5
239 1 0.5 0.5 0.5
240 1 0.5 0.5 0.5
241 1 0.5 0.5 0.5
242 1 0.5 0.5 0.5
243 1 0.5 0.5 0.5
244 1 0.5 0.5 0.5
245 1 0.5 0.5 0.5
246 1 0.5 0.5 0.5
247 1 0.5 0.5 0.5
248 1 0.5 0.5 0.5
249 1 0.5 0.5 0.5
250 1 0.5 0.5 0.5
251 1 0.5 0.5 0.5
252 1 0.5 0.5 0.5
253 1 0.5 0.5 0.5
254 1 0.5 0.5 0.5
255 1 0.5 0.5 0.5
256 1 0.5 0.5 0.5
257 1 0.5 0.5 0.5
258 1 0.5 0.5 0.5
259 1 0.5 0.5 0.5
260 1 0.5 0.5 0.5
261 1 0.5 0.5 0.5
262 1 0.5 0.5 0.5
263 1 0.5 0.5 0.5
264 1 0.5 0.5 0.5
265 1 0.5 0.5 0.5
266 1 0.5 0.5 0.5
267 1 0.5 0.5 0.5
268 1 0.5 0.5 0.5
269 1 0.5 0.5 0.5
270 1 0.5 0.5 0.5
271 1 0.5 0.5 0.5
272 1 0.5 0.5 0.5
273 1 0.5 0.5 0.5
274 1 0.5 0.5 0.5
275 1 0.5 0.5 0.5
276 1 0.5 0.5 0.5
277 1 0.5 0.5 0.5
278 1 0.5 0.5 0.5
279 1 0.5 0.5 0.5
280 1 0.5 0.5 0.5
281 1 0.5 0.5 0.5
282 1 0.5 0.5 0.5
283 1 0.5 0.5 0.5
284 1 0.5 0.5 0.5
285 1 0.5 0.5 0.5
286 1 0.5 0.5 0.5
287 1 0.5 0.5 0.5
288 1 0.5 0.5 0.5
289 1 0.5 0.5 0.5
290 1 0.5 0.5 0.5
291 1 0.5 0.5 0.5
292 1 0.5 0.5 0.5
293 1 0.5 0.5 0.5
294 1 0.5 0.5 0.5
295 1 0.5 0.5 0.5
296 1 0.5 0.5 0.5
297 1 0.5 0.5 0.5
298 1 0.5 0.5 0.5
299 1 0.5 0.5 0.5
300 1 0.5 0.5 0.5
301 1 0.5 0.5 0.5
302 1 0.5 0.5 0.5
303 1 0.5 0.5 0.5
304 1 0.5 0.5 0.5
305 1 0.5 0.5 0.5
306 1 0.5 0.5 0.5
307 1 0.5 0.5 0.5
308 1 0.5 0.5 0.5
309 1 0.5 0.5 0.5
310 1 0.5 0.5 0.5
311 1 0.5 0.5 0.5
312 1 0.5 0.5 0.5
313 1 0.5 0.5 0.5
314 1 0.5 0.5 0.5
315 1 0.5 0.5 0.5
316 1 0.5 0.5 0.5
317 1 0.5 0.5 0.5
318 1 0.5 0.5 0.5
319 1 0.5 0.5 0.5
320 1 0.5 0.5 0.5
321 1 0.5 0.5 0.5
322 1 0.5 0.5 0.5
323 1 0.5 0.5 0.5
324 1 0.5 0.5 0.5
325 1 0.5 0.5 0.5
326 1 0.5 0.5 0.5
327 1 0.5 0.5 0.5
328 1 0.5 0.5 0.5
329 1 0.5 0.5 0.5
330 1 0.5 0.5 0.5
331 1 0.5 0.5 0.5
332 1 0.5 0.5 0.5
333 1 0.5 0.5 0.5
334 1 0.5 0.5 0.5
335 1 0.5 0.5 0.5
336 1 0.5 0.5 0.5
337 1 0.5 0.5 0.5
338 1 0.5 0.5 0.5
339 1 0.5 0.5 0.5
340 1 0.5 0.5 0.5
341 1 0.5 0.5 0.5
342 1 0.5 0.5 0.5
343 1 0.5 0.5 0.5
344 1 0.5 0.5 0.5
345 1 0.5 0.5 0.5
346 1 0.5 0.5 0.5
347 1 0.5 0.5 0.5
348 1 0.5 0.5 0.5
349 1 0.5 0.5 0.5
350 1 0.5 0.5 0.5
351 1 0.5 0.5 0.5
352 1 0.5 0.5 0.5
353 1 0.5 0.5 0.5
354 1 0.5 0.5 0.5
355 1 0.5 0.5 0.5
356 1 0.5 0.5 0.5
357 1 0.5 0.5 0.5
358 1 0.5 0.5 0.5
359 1 0.5 0.5 0.5
360 1 0.5 0.5 0.5
361 1 0.5 0.5 0.5
362 1 0.5 0.5 0.5
363 1 0.5 0.5 0.5
364 1 0.5 0.5 0.5
365 1 0.5 0.5 0.5
366 1 0.5 0.5 0.5
367 1 0.5 0.5 0.5
368 1 0.5 0.5 0.5
369 1 0.5 0.5 0.5
370 1 0.5 0.5 0.5
371 1 0.5 0.5 0.5
372 1 0.5 0.5 0.5
373 1 0.5 0.5 0.5
374 1 0.5 0.5 0.5
375 1 0.5 0.5 0.5
376 1 0.5 0.5 0.5
377 1 0.5 0.5 0.5
378 1 0.5 0.5 0.5
379 1 0.5 0.5 0.5
380 1 0.5 0.5 0.5
381 1 0.5 0.5 0.5
382 1 0.5 0.5 0.5
383 1 0.5 0.5 0.5
384 1 0.5 0.5 0.5
385 1 0.5 0.5 0.5
386 1 0.5 0.5 0.5
387 1 0.5 0.5 0.5
388 1 0.5 0.5 0.5
389 1 0.5 0.5 0.5
390 1 0.5 0.5 0.5
391 1 0.5 0.5 0.5
392 1 0.5 0.5 0.5
393 1 0.5 0.5 0.5
394 1 0.5 0.5 0.5
395 1 0.5 0.5 0.5
396 1 0.5 0.5 0.5
397 1 0.5 0.5 0.5
398 1 0.5 0.5 0.5
399 1 0.5 0.5 0.5
400 1 0.5 0.5 0.5
401 1 0.5 0.5 0.5
402 1 0.5 0.5 0.5
403 1 0.5 0.5 0.5
404 1 0.5 0.5 0.5
405 1 0.5 0.5 0.5
406 1 0.5 0.5 0.5
407 1 0.5 0.5 0.5
408 1 0.5 0.5 0.5
409 1 0.5 0.5 0.5
410 1 0.5 0.5 0.5
411 1 0.5 0.5 0.5
412 1 0.5 0.5 0.5
413 1 0.5 0.5 0.5
414 1 0.5 0.5 0.5
415 1 0.5 0.5 0.5
416 1 0.5 0.5 0.5
417 1 0.5 0.5 0.5
418 1 0.5 0.5 0.5
419 1 0.5 0.5 0.5
420 1 0.5 0.5 0.5
421 1 0.5 0.5 0.5
422 1 0.5 0.5 0.5
423 1 0.5 0.5 0.5
424 1 0.5 0.5 0.5
425 1 0.5 0.5 0.5
426 1 0.5 0.5 0.5
427 1 0.5 0.5 0.5
428 1 0.5 0.5 0.5
429 1 0.5 0.5 0.5
430 1 0.5 0.5 0.5
431 1 0.5 0.5 0.5
432 1 0.5 0.5 0.5
433 1 0.5 0.5 0.5
434 1 0.5 0.5 0.5
435 1 0.5 0.5 0.5
436 1 0.5 0.5 0.5
437 1 0.5 0.5 0.5
438 1 0.5 0.5 0.5
439 1 0.5 0.5 0.5
440 1 0.5 0.5 0.5
441 1 0.5 0.5 0.5
442 1 0.5 0.5 0.5
443 1 0.5 0.5 0.5
444 1 0.5 0.5 0.5
445 1 0.5 0.5 0.5
446 1 0.5 0.5 0.5
447 1 0.5 0.5 0.5
448 1 0.5 0.5 0.5
449 1 0.5 0.5 0.5
450 1 0.5 0.5 0.5
451 1 0.5 0.5 0.5
452 1 0.5 0.5 0.5
453 1 0.5 0.5 0.5
454 1 0.5 0.5 0.5
455 1 0.5 0.5 0.5
456 1 0.5 0.5 0.5
457 1 0.5 0.5 0.5
458 1 0.5 0.5 0.5
459 1 0.5 0.5 0.5
460 1 0.5 0.5 0.5
461 1 0.5 0.5 0.5
462 1 0.5 0.5 0.5
463 1 0.5 0.5 0.5
464 1 0.5 0.5 0.5
465 1 0.5 0.5 0.5
466 1 0.5 0.5 0.5
467 1 0.5 0.5 0.5
468 1 0.5 0.5 0.5
469 1 0.5 0.5 0.5
470 1 0.5 0.5 0.5
471 1 0.5 0.5 0.5
472 1 0.5 0.5 0.5
473 1 0.5 0.5 0.5
474 1 0.5 0.5 0.5
475 1 0.5 0.5 0.5
476 1 0.5 0.5 0.5
477 1 0.5 0.5 0.5
478 1 0.5 0.5 0.5
479 1 0.5 0.5 0.5
480 1 0.5 0.5 0.5
481 1 0.5 0.5 0.5
482 1 0.5 0.5 0.5
483 1 0.5 0.5 0.5
484 1 0.5 0.5 0.5
485 1 0.5 0.5 0.5
486 1 0.5 0.5 0.5
487 1 0.5 0.5 0.5
488 1 0.5 0.5 0.5
489 1 0.5 0.5 0.5
490 1 0.5 0.5 0.5
491 1 0.5 0.5 0.5
492 1 0.5 0.5 0.5
493 1 0.5 0.5 0.5
494 1 0.5 0.5 0.5
495 1 0.5 0.5 0.5
496 1 0.5 0.5 0.5
497 1 0.5 0.5 0.5
498 1 0.5 0.5 0.5
499 1 0.5 0.5 0.5
500 1 0.5 0.5 0.5
501 1 0.5 0.5 0.5
502 1 0.5 0.5 0.5
503 1 0.5 0.5 0.5
504 1 0.5 0.5 0.5
505 1 0.5 0.5 0.5
506 1 0.5 0.5 0.5
507 1 0.5 0.5 0.5
508 1 0.5 0.5 0.5
509 1 0.5 0.5 0.5
510 1 0.5 0.5 0.5
511 1 0.5 0.5 0.5
512 1 0.5 0.5 0.5
513 1 0.5 0.5 0.5
514 1 0.5 0.5 0.5
515 1 0.5 0.5 0.5
516 1 0.5 0.5 0.5
517 1 0.5 0.5 0.5
518 1 0.5 0.5 0.5
519 1 0.5 0.5 0.5
520 1 0.5 0.5 0.5
521 1 0.5 0.5 0.5
522 1 0.5 0.5 0.5
523 1 0.5 0.5 0.5
524 1 0.5 0.5 0.5
525 1 0.5 0.5 0.5
526 1 0.5 0.5 0.5
527 1 0.5 0.5 0.5
528 1 0.5 0.5 0.5
529 1 0.5 0.5 0.5
530 1 0.5 0.5 0.5
531 1 0.5 0.5 0.5
532 1 0.5 0.5 0.5
533 1 0.5 0.5 0.5
534 1 0.5 0.5 0.5
535 1 0.5 0.5 0.5
536 1 0.5 0.5 0.5
537 1 0.5 0.5 0.5
538 1 0.5 0.5 0.5
539 1 0.5 0.5 0.5
540 1 0.5 0.5 0.5
541 1 0.5 0.5 0.5
542 1 0.5 0.5 0.5
543 1 0.5 0.5 0.5
544 1 0.5 0.5 0.5
545 1 0.5 0.5 0.5
546 1 0.5 0.5 0.5
547 1 0.5 0.5 0.5
548 1 0.5 0.5 0.5