ITEM: TIMESTEP
0
ITEM: NUMBER OF ATOMS
2424
ITEM: BOX BOUNDS pp pp pp
-50 50
-50 50
-50 50
ITEM: ATOMS id type xs ys zs
1721 2 0.487684 0.463241 0.449895
2226 2 0.5 0.458302 0.450345
1718 2 0.512316 0.463241 0.449895
1730 2 0.475788 0.468362 0.450056
2227 2 0.5 0.470022 0.448763
1715 2 0.524212 0.468362 0.450056
1722 2 0.487624 0.47535 0.448508
1716 2 0.512376 0.47535 0.448508
1731 2 0.47561 0.480947 0.448873
2228 2 0.5 0.481823 0.44772
1712 2 0.52439 0.480947 0.448873
1739 2 0.464103 0.486924 0.449813
1723 2 0.487548 0.487625 0.447679
1713 2 0.512452 0.487625 0.447679
1707 2 0.535897 0.486924 0.449813
1732 2 0.475525 0.49361 0.448285
1724 2 0.487556 0.5 0.447402
2229 2 0.5 0.494001 0.447187
1709 2 0.512444 0.5 0.447402
1708 2 0.524475 0.49361 0.448285
1702 2 0.53598 0.5 0.449502
1740 2 0.46402 0.5 0.449502
1733 2 0.475525 0.50639 0.448285
2230 2 0.5 0.505999 0.447187
1703 2 0.524475 0.50639 0.448285
1741 2 0.464103 0.513076 0.449813
1725 2 0.487548 0.512375 0.447679
1704 2 0.512452 0.512375 0.447679
1696 2 0.535897 0.513076 0.449813
1734 2 0.47561 0.519053 0.448873
2231 2 0.5 0.518177 0.44772
1697 2 0.52439 0.519053 0.448873
1726 2 0.487624 0.52465 0.448508
1698 2 0.512376 0.52465 0.448508
1735 2 0.475788 0.531638 0.450056
2232 2 0.5 0.529978 0.448763
1690 2 0.524212 0.531638 0.450056
1727 2 0.487684 0.536759 0.449895
2233 2 0.5 0.541698 0.450345
1691 2 0.512316 0.536759 0.449895
2384 2 0.492712 0.428025 0.457554
2385 2 0.507288 0.428025 0.457554
1451 2 0.468459 0.436136 0.457197
1450 2 0.480318 0.431719 0.457145
1213 2 0.5 0.436224 0.45502
1449 2 0.519682 0.431719 0.457145
1448 2 0.531541 0.436136 0.457197
1452 2 0.457052 0.441158 0.457719
2314 2 0.488207 0.439818 0.454377
2315 2 0.511793 0.439818 0.454377
1446 2 0.542948 0.441158 0.457719
2312 2 0.46548 0.448687 0.45451
2313 2 0.476776 0.443949 0.454211
2225 2 0.5 0.447106 0.452414
2316 2 0.523224 0.443949 0.454211
2317 2 0.53452 0.448687 0.45451
2311 2 0.454736 0.453848 0.455256
1729 2 0.47607 0.456064 0.451829
1720 2 0.487836 0.451401 0.451842
1719 2 0.512164 0.451401 0.451842
1717 2 0.52393 0.456064 0.451829
2318 2 0.545264 0.453848 0.455256
2310 2 0.444273 0.45956 0.456466
1737 2 0.464701 0.461183 0.452324
1714 2 0.535299 0.461183 0.452324
2319 2 0.555727 0.45956 0.456466
1744 2 0.453844 0.466795 0.453291
1710 2 0.546156 0.466795 0.453291
1750 2 0.443511 0.472778 0.454735
1738 2 0.464304 0.473959 0.450755
1711 2 0.535696 0.473959 0.450755
1705 2 0.556489 0.472778 0.454735
1755 2 0.43382 0.47917 0.456625
1745 2 0.453411 0.479944 0.451967
1706 2 0.546589 0.479944 0.451967
1699 2 0.56618 0.47917 0.456625
1751 2 0.443073 0.486333 0.453688
1700 2 0.556927 0.486333 0.453688
1756 2 0.433475 0.493012 0.455888
1752 2 0.442946 0.5 0.453336
1746 2 0.453193 0.493309 0.451305
1701 2 0.546807 0.493309 0.451305
1693 2 0.566525 0.493012 0.455888
1757 2 0.433475 0.506988 0.455888
1747 2 0.453193 0.506691 0.451305
1695 2 0.546807 0.506691 0.451305
1694 2 0.557054 0.5 0.453336
1686 2 0.566525 0.506988 0.455888
1753 2 0.443073 0.513667 0.453688
1687 2 0.556927 0.513667 0.453688
1758 2 0.43382 0.52083 0.456625
1748 2 0.453411 0.520056 0.451967
1688 2 0.546589 0.520056 0.451967
1678 2 0.56618 0.52083 0.456625
1754 2 0.443511 0.527222 0.454735
1742 2 0.464304 0.526041 0.450755
1689 2 0.535696 0.526041 0.450755
1679 2 0.556489 0.527222 0.454735
1749 2 0.453844 0.533205 0.453291
1680 2 0.546156 0.533205 0.453291
2220 2 0.444273 0.54044 0.456466
1743 2 0.464701 0.538817 0.452324
1681 2 0.535299 0.538817 0.452324
2239 2 0.555727 0.54044 0.456466
2221 2 0.454736 0.546152 0.455256
1736 2 0.47607 0.543936 0.451829
1728 2 0.487836 0.548599 0.451842
1683 2 0.512164 0.548599 0.451842
1682 2 0.52393 0.543936 0.451829
2238 2 0.545264 0.546152 0.455256
2222 2 0.46548 0.551313 0.45451
2223 2 0.476776 0.556051 0.454211
2234 2 0.5 0.552894 0.452414
2236 2 0.523224 0.556051 0.454211
2237 2 0.53452 0.551313 0.45451
2007 2 0.457052 0.558842 0.457719
2224 2 0.488207 0.560182 0.454377
2235 2 0.511793 0.560182 0.454377
1984 2 0.542948 0.558842 0.457719
1999 2 0.468459 0.563864 0.457197
1990 2 0.480318 0.568281 0.457145
1220 2 0.5 0.563776 0.45502
1989 2 0.519682 0.568281 0.457145
1987 2 0.531541 0.563864 0.457197
2144 2 0.492712 0.571975 0.457554
2145 2 0.507288 0.571975 0.457554
2382 2 0.478665 0.414167 0.46381
1286 2 0.492822 0.412206 0.463644
1277 2 0.507178 0.412206 0.463644
2387 2 0.521335 0.414167 0.46381
1467 2 0.465808 0.418235 0.463894
2383 2 0.485647 0.420725 0.460468
1278 2 0.5 0.419555 0.460422
2386 2 0.514353 0.420725 0.460468
1444 2 0.534192 0.418235 0.463894
1468 2 0.453549 0.42319 0.464432
1460 2 0.460824 0.429185 0.460609
1459 2 0.472895 0.424522 0.460326
1447 2 0.527105 0.424522 0.460326
1445 2 0.539176 0.429185 0.460609
1441 2 0.546451 0.42319 0.464432
1461 2 0.44923 0.434496 0.461386
1442 2 0.55077 0.434496 0.461386
1462 2 0.438285 0.440342 0.462635
1438 2 0.561715 0.440342 0.462635
1463 2 0.427946 0.446731 0.464357
1453 2 0.446148 0.446646 0.458719
1443 2 0.553852 0.446646 0.458719
1433 2 0.572054 0.446731 0.464357
1454 2 0.43582 0.452644 0.460159
1439 2 0.56418 0.452644 0.460159
1455 2 0.426124 0.459022 0.462053
1434 2 0.573876 0.459022 0.462053
1456 2 0.417168 0.465808 0.464359
2309 2 0.434566 0.465559 0.458082
2320 2 0.565434 0.465559 0.458082
1428 2 0.582832 0.465808 0.464359
2307 2 0.416974 0.478665 0.462586
2308 2 0.425325 0.472025 0.460153
2321 2 0.574675 0.472025 0.460153
2322 2 0.583026 0.478665 0.462586
1759 2 0.424816 0.485833 0.458965
1692 2 0.575184 0.485833 0.458965
1762 2 0.416594 0.492822 0.461732
1684 2 0.583406 0.492822 0.461732
1685 2 0.575404 0.5 0.458579
1760 2 0.424596 0.5 0.458579
1763 2 0.416594 0.507178 0.461732
1676 2 0.583406 0.507178 0.461732
1761 2 0.424816 0.514167 0.458965
1677 2 0.575184 0.514167 0.458965
2217 2 0.416974 0.521335 0.462586
2218 2 0.425325 0.527975 0.460153
2241 2 0.574675 0.527975 0.460153
2242 2 0.583026 0.521335 0.462586
2029 2 0.417168 0.534192 0.464359
2219 2 0.434566 0.534441 0.458082
2240 2 0.565434 0.534441 0.458082
1962 2 0.582832 0.534192 0.464359
2025 2 0.426124 0.540978 0.462053
1969 2 0.573876 0.540978 0.462053
2020 2 0.43582 0.547356 0.460159
1975 2 0.56418 0.547356 0.460159
2021 2 0.427946 0.553269 0.464357
2014 2 0.446148 0.553354 0.458719
1980 2 0.553852 0.553354 0.458719
1970 2 0.572054 0.553269 0.464357
2015 2 0.438285 0.559658 0.462635
1976 2 0.561715 0.559658 0.462635
2008 2 0.44923 0.565504 0.461386
1981 2 0.55077 0.565504 0.461386
2001 2 0.453549 0.57681 0.464432
2000 2 0.460824 0.570815 0.460609
1991 2 0.472895 0.575478 0.460326
1988 2 0.527105 0.575478 0.460326
1985 2 0.539176 0.570815 0.460609
1982 2 0.546451 0.57681 0.464432
1992 2 0.465808 0.581765 0.463894
2143 2 0.485647 0.579275 0.460468
2124 2 0.5 0.580445 0.460422
2146 2 0.514353 0.579275 0.460468
1986 2 0.534192 0.581765 0.463894
2142 2 0.478665 0.585833 0.46381
2123 2 0.492822 0.587794 0.463644
2122 2 0.507178 0.587794 0.463644
2147 2 0.521335 0.585833 0.46381
1299 2 0.47917 0.40049 0.471153
1292 2 0.493012 0.3988 0.471003
1284 2 0.506988 0.3988 0.471003
1275 2 0.52083 0.40049 0.471153
2380 2 0.465559 0.403833 0.471478
1293 2 0.485833 0.405859 0.467228
1285 2 0.5 0.404973 0.467132
1276 2 0.514167 0.405859 0.467228
2389 2 0.534441 0.403833 0.471478
1474 2 0.459022 0.412942 0.467798
2381 2 0.472025 0.408584 0.46745
2388 2 0.527975 0.408584 0.46745
1440 2 0.540978 0.412942 0.467798
1475 2 0.446731 0.418228 0.468593
1436 2 0.553269 0.418228 0.468593
1476 2 0.435092 0.424265 0.469905
1469 2 0.441918 0.428842 0.46546
1437 2 0.558082 0.428842 0.46546
1431 2 0.564908 0.424265 0.469905
1477 2 0.424265 0.430956 0.471707
1470 2 0.430956 0.435092 0.466988
1432 2 0.569044 0.435092 0.466988
1425 2 0.575735 0.430956 0.471707
1471 2 0.420761 0.441918 0.468983
1426 2 0.579239 0.441918 0.468983
1472 2 0.411414 0.44923 0.471447
1419 2 0.588586 0.44923 0.471447
1464 2 0.418402 0.453549 0.466519
1427 2 0.581598 0.453549 0.466519
1465 2 0.409632 0.460824 0.469133
1420 2 0.590368 0.460824 0.469133
1457 2 0.408982 0.472895 0.4671
1421 2 0.591018 0.472895 0.4671
1458 2 0.401683 0.480318 0.470237
2306 2 0.409307 0.485647 0.465445
2323 2 0.590693 0.485647 0.465445
1413 2 0.598317 0.480318 0.470237
2305 2 0.402623 0.492712 0.468627
2324 2 0.597377 0.492712 0.468627
1764 2 0.409201 0.5 0.464935
1675 2 0.590799 0.5 0.464935
2215 2 0.402623 0.507288 0.468627
2244 2 0.597377 0.507288 0.468627
2034 2 0.401683 0.519682 0.470237
2216 2 0.409307 0.514353 0.465445
2243 2 0.590693 0.514353 0.465445
1945 2 0.598317 0.519682 0.470237
2032 2 0.408982 0.527105 0.4671
1954 2 0.591018 0.527105 0.4671
2030 2 0.409632 0.539176 0.469133
1955 2 0.590368 0.539176 0.469133
2026 2 0.418402 0.546451 0.466519
1963 2 0.581598 0.546451 0.466519
2027 2 0.411414 0.55077 0.471447
1956 2 0.588586 0.55077 0.471447
2022 2 0.420761 0.558082 0.468983
1964 2 0.579239 0.558082 0.468983
2017 2 0.424265 0.569044 0.471707
2016 2 0.430956 0.564908 0.466988
1971 2 0.569044 0.564908 0.466988
1965 2 0.575735 0.569044 0.471707
2010 2 0.435092 0.575735 0.469905
2009 2 0.441918 0.571158 0.46546
1977 2 0.558082 0.571158 0.46546
1972 2 0.564908 0.575735 0.469905
2002 2 0.446731 0.581772 0.468593
1978 2 0.553269 0.581772 0.468593
1993 2 0.459022 0.587058 0.467798
2141 2 0.472025 0.591416 0.46745
2148 2 0.527975 0.591416 0.46745
1983 2 0.540978 0.587058 0.467798
2140 2 0.465559 0.596167 0.471478
2121 2 0.485833 0.594141 0.467228
2120 2 0.5 0.595027 0.467132
2119 2 0.514167 0.594141 0.467228
2149 2 0.534441 0.596167 0.471478
2118 2 0.47917 0.59951 0.471153
2117 2 0.493012 0.6012 0.471003
2116 2 0.506988 0.6012 0.471003
2115 2 0.52083 0.59951 0.471153
1298 2 0.486333 0.393753 0.475186
1291 2 0.5 0.392945 0.475131
1283 2 0.513667 0.393753 0.475186
2379 2 0.45956 0.400125 0.475709
1304 2 0.472778 0.396155 0.475377
1274 2 0.527222 0.396155 0.475377
2390 2 0.54044 0.400125 0.475709
1485 2 0.446646 0.405294 0.476526
1429 2 0.553354 0.405294 0.476526
1486 2 0.434496 0.411414 0.47787
1481 2 0.440342 0.41428 0.473099
1480 2 0.452644 0.408598 0.472025
1435 2 0.547356 0.408598 0.472025
1430 2 0.559658 0.41428 0.473099
1423 2 0.565504 0.411414 0.47787
1482 2 0.428842 0.420761 0.474682
1424 2 0.571158 0.420761 0.474682
1483 2 0.418228 0.427946 0.476781
1417 2 0.581772 0.427946 0.476781
1478 2 0.41428 0.438285 0.473996
1418 2 0.58572 0.438285 0.473996
1479 2 0.405294 0.446148 0.476744
1410 2 0.594706 0.446148 0.476744
1473 2 0.403 0.457052 0.474351
1411 2 0.597 0.457052 0.474351
2302 2 0.395639 0.46548 0.477633
1466 2 0.401804 0.468459 0.472162
1412 2 0.598196 0.468459 0.472162
2327 2 0.604361 0.46548 0.477633
2303 2 0.394954 0.476776 0.475568
2326 2 0.605046 0.476776 0.475568
1503 2 0.389519 0.487836 0.478816
2304 2 0.395334 0.488207 0.473767
2325 2 0.604666 0.488207 0.473767
1638 2 0.610481 0.487836 0.478816
1223 2 0.603192 0.5 0.472201
2245 2 0.60917 0.5 0.476944
2294 2 0.39083 0.5 0.476944
1224 2 0.396808 0.5 0.472201
1765 2 0.389519 0.512164 0.478816
2214 2 0.395334 0.511793 0.473767
2155 2 0.604666 0.511793 0.473767
1944 2 0.610481 0.512164 0.478816
2213 2 0.394954 0.523224 0.475568
2156 2 0.605046 0.523224 0.475568
2212 2 0.395639 0.53452 0.477633
2033 2 0.401804 0.531541 0.472162
1946 2 0.598196 0.531541 0.472162
2157 2 0.604361 0.53452 0.477633
2031 2 0.403 0.542948 0.474351
1947 2 0.597 0.542948 0.474351
2028 2 0.405294 0.553852 0.476744
1948 2 0.594706 0.553852 0.476744
2023 2 0.41428 0.561715 0.473996
1957 2 0.58572 0.561715 0.473996
2018 2 0.418228 0.572054 0.476781
1958 2 0.581772 0.572054 0.476781
2011 2 0.428842 0.579239 0.474682
1966 2 0.571158 0.579239 0.474682
2004 2 0.434496 0.588586 0.47787
2003 2 0.440342 0.58572 0.473099
1994 2 0.452644 0.591402 0.472025
1979 2 0.547356 0.591402 0.472025
1973 2 0.559658 0.58572 0.473099
1967 2 0.565504 0.588586 0.47787
1995 2 0.446646 0.594706 0.476526
1974 2 0.553354 0.594706 0.476526
2139 2 0.45956 0.599875 0.475709
2114 2 0.472778 0.603845 0.475377
2110 2 0.527222 0.603845 0.475377
2150 2 0.54044 0.599875 0.475709
2113 2 0.486333 0.606247 0.475186
2112 2 0.5 0.607055 0.475131
2111 2 0.513667 0.606247 0.475186
1307 2 0.473959 0.387024 0.48444
1302 2 0.486924 0.384864 0.484353
1296 2 0.5 0.38415 0.484317
1289 2 0.513076 0.384864 0.484353
1281 2 0.526041 0.387024 0.48444
1311 2 0.461183 0.390624 0.484613
1308 2 0.466795 0.392842 0.479881
1303 2 0.479944 0.389804 0.479692
1297 2 0.493309 0.388285 0.479597
1290 2 0.506691 0.388285 0.479597
1282 2 0.520056 0.389804 0.479692
1273 2 0.533205 0.392842 0.479881
1272 2 0.538817 0.390624 0.484613
2377 2 0.448687 0.395639 0.484953
2378 2 0.453848 0.39735 0.48027
2391 2 0.546152 0.39735 0.48027
2392 2 0.551313 0.395639 0.484953
1489 2 0.441158 0.403 0.481279
1422 2 0.558842 0.403 0.481279
1490 2 0.429185 0.409632 0.482923
1415 2 0.570815 0.409632 0.482923
1491 2 0.418235 0.417168 0.485096
1487 2 0.42319 0.418402 0.479752
1416 2 0.57681 0.418402 0.479752
1407 2 0.581765 0.417168 0.485096
1488 2 0.412942 0.426124 0.482138
1408 2 0.587058 0.426124 0.482138
2299 2 0.403833 0.434566 0.484988
1484 2 0.408598 0.43582 0.479358
1409 2 0.591402 0.43582 0.479358
2330 2 0.596167 0.434566 0.484988
2300 2 0.400125 0.444273 0.482372
2329 2 0.599875 0.444273 0.482372
1500 2 0.392842 0.453844 0.485526
2301 2 0.39735 0.454736 0.479883
2328 2 0.60265 0.454736 0.479883
1659 2 0.607158 0.453844 0.485526
1501 2 0.390624 0.464701 0.48308
1653 2 0.609376 0.464701 0.48308
1502 2 0.389488 0.47607 0.480849
1646 2 0.610512 0.47607 0.480849
1511 2 0.385052 0.487684 0.483977
1637 2 0.614948 0.487684 0.483977
2246 2 0.613917 0.5 0.481824
2293 2 0.386083 0.5 0.481824
1774 2 0.385052 0.512316 0.483977
1942 2 0.614948 0.512316 0.483977
1766 2 0.389488 0.52393 0.480849
1943 2 0.610512 0.52393 0.480849
1767 2 0.390624 0.535299 0.48308
1941 2 0.609376 0.535299 0.48308
1768 2 0.392842 0.546156 0.485526
2211 2 0.39735 0.545264 0.479883
2158 2 0.60265 0.545264 0.479883
1938 2 0.607158 0.546156 0.485526
2210 2 0.400125 0.555727 0.482372
2159 2 0.599875 0.555727 0.482372
2209 2 0.403833 0.565434 0.484988
2024 2 0.408598 0.56418 0.479358
1949 2 0.591402 0.56418 0.479358
2160 2 0.596167 0.565434 0.484988
2019 2 0.412942 0.573876 0.482138
1950 2 0.587058 0.573876 0.482138
2013 2 0.418235 0.582832 0.485096
2012 2 0.42319 0.581598 0.479752
1959 2 0.57681 0.581598 0.479752
1951 2 0.581765 0.582832 0.485096
2005 2 0.429185 0.590368 0.482923
1960 2 0.570815 0.590368 0.482923
1996 2 0.441158 0.597 0.481279
1968 2 0.558842 0.597 0.481279
2137 2 0.448687 0.604361 0.484953
2138 2 0.453848 0.60265 0.48027
2151 2 0.546152 0.60265 0.48027
2152 2 0.551313 0.604361 0.484953
2103 2 0.461183 0.609376 0.484613
2109 2 0.466795 0.607158 0.479881
2108 2 0.479944 0.610196 0.479692
2107 2 0.493309 0.611715 0.479597
2106 2 0.506691 0.611715 0.479597
2105 2 0.520056 0.610196 0.479692
2104 2 0.533205 0.607158 0.479881
2097 2 0.538817 0.609376 0.484613
2102 2 0.473959 0.612976 0.48444
2101 2 0.486924 0.615136 0.484353
2100 2 0.5 0.61585 0.484317
2099 2 0.513076 0.615136 0.484353
2098 2 0.526041 0.612976 0.48444
1310 2 0.468362 0.38542 0.489446
1306 2 0.480947 0.382706 0.489369
1301 2 0.49361 0.381358 0.489331
1295 2 0.50639 0.381358 0.489331
1288 2 0.519053 0.382706 0.489369
1280 2 0.531638 0.38542 0.489446
1313 2 0.456064 0.389488 0.489569
1271 2 0.543936 0.389488 0.489569
2376 2 0.443949 0.394954 0.489877
2393 2 0.556051 0.394954 0.489877
1492 2 0.436136 0.401804 0.486251
1494 2 0.431719 0.401683 0.491421
1405 2 0.568281 0.401683 0.491421
1414 2 0.563864 0.401804 0.486251
1493 2 0.424522 0.408982 0.488185
1406 2 0.575478 0.408982 0.488185
2297 2 0.414167 0.416974 0.4907
2332 2 0.585833 0.416974 0.4907
2298 2 0.408584 0.425325 0.487806
2331 2 0.591416 0.425325 0.487806
1498 2 0.40049 0.43382 0.49092
1668 2 0.59951 0.43382 0.49092
1499 2 0.396155 0.443511 0.488134
1664 2 0.603845 0.443511 0.488134
1508 2 0.389804 0.453411 0.491258
1658 2 0.610196 0.453411 0.491258
1509 2 0.387024 0.464304 0.488649
1652 2 0.612976 0.464304 0.488649
1510 2 0.38542 0.475788 0.486209
1517 2 0.382706 0.47561 0.491695
1644 2 0.617294 0.47561 0.491695
1645 2 0.61458 0.475788 0.486209
1518 2 0.381868 0.487624 0.489255
1636 2 0.618132 0.487624 0.489255
2247 2 0.617546 0.5 0.486933
2248 2 0.619939 0.5 0.492077
2291 2 0.380061 0.5 0.492077
2292 2 0.382454 0.5 0.486933
1782 2 0.381868 0.512376 0.489255
1939 2 0.618132 0.512376 0.489255
1775 2 0.38542 0.524212 0.486209
1783 2 0.382706 0.52439 0.491695
1936 2 0.617294 0.52439 0.491695
1940 2 0.61458 0.524212 0.486209
1776 2 0.387024 0.535696 0.488649
1937 2 0.612976 0.535696 0.488649
1777 2 0.389804 0.546589 0.491258
1933 2 0.610196 0.546589 0.491258
1769 2 0.396155 0.556489 0.488134
1934 2 0.603845 0.556489 0.488134
1770 2 0.40049 0.56618 0.49092
1929 2 0.59951 0.56618 0.49092
2208 2 0.408584 0.574675 0.487806
2161 2 0.591416 0.574675 0.487806
2207 2 0.414167 0.583026 0.4907
2162 2 0.585833 0.583026 0.4907
2006 2 0.424522 0.591018 0.488185
1952 2 0.575478 0.591018 0.488185
1997 2 0.436136 0.598196 0.486251
1998 2 0.431719 0.598317 0.491421
1953 2 0.568281 0.598317 0.491421
1961 2 0.563864 0.598196 0.486251
2136 2 0.443949 0.605046 0.489877
2153 2 0.556051 0.605046 0.489877
2096 2 0.456064 0.610512 0.489569
2089 2 0.543936 0.610512 0.489569
2095 2 0.468362 0.61458 0.489446
2094 2 0.480947 0.617294 0.489369
2093 2 0.49361 0.618642 0.489331
2092 2 0.50639 0.618642 0.489331
2091 2 0.519053 0.617294 0.489369
2090 2 0.531638 0.61458 0.489446
1305 2 0.487625 0.379968 0.494572
1300 2 0.5 0.379331 0.494576
1294 2 0.512375 0.379968 0.494572
1312 2 0.463241 0.385052 0.494632
1309 2 0.47535 0.381868 0.494605
1287 2 0.52465 0.381868 0.494605
1279 2 0.536759 0.385052 0.494632
1314 2 0.451401 0.389519 0.494698
1270 2 0.548599 0.389519 0.494698
2375 2 0.439818 0.395334 0.49486
2394 2 0.560182 0.395334 0.49486
2295 2 0.428025 0.402623 0.496823
2334 2 0.571975 0.402623 0.496823
1495 2 0.419555 0.409201 0.5
2296 2 0.420725 0.409307 0.493744
1674 2 0.580445 0.409201 0.5
2333 2 0.579275 0.409307 0.493744
1496 2 0.412206 0.416594 0.496871
1673 2 0.587794 0.416594 0.496871
1497 2 0.405859 0.424816 0.493825
1671 2 0.594141 0.424816 0.493825
1506 2 0.3988 0.433475 0.496954
1667 2 0.6012 0.433475 0.496954
1507 2 0.393753 0.443073 0.494043
1514 2 0.392945 0.442946 0.5
1662 2 0.607055 0.442946 0.5
1663 2 0.606247 0.443073 0.494043
1515 2 0.388285 0.453193 0.497083
1657 2 0.611715 0.453193 0.497083
1516 2 0.384864 0.464103 0.4943
1651 2 0.615136 0.464103 0.4943
1523 2 0.381358 0.475525 0.497215
1643 2 0.618642 0.475525 0.497215
1524 2 0.379968 0.487548 0.494606
1529 2 0.379331 0.487556 0.5
1635 2 0.620032 0.487548 0.494606
2249 2 0.621161 0.5 0.497385
2290 2 0.378839 0.5 0.497385
1789 2 0.379968 0.512452 0.494606
1795 2 0.379331 0.512444 0.5
1930 2 0.620669 0.512444 0.5
1935 2 0.620032 0.512452 0.494606
1790 2 0.381358 0.524475 0.497215
1931 2 0.618642 0.524475 0.497215
1784 2 0.384864 0.535897 0.4943
1932 2 0.615136 0.535897 0.4943
1785 2 0.388285 0.546807 0.497083
1927 2 0.611715 0.546807 0.497083
1778 2 0.393753 0.556927 0.494043
1786 2 0.392945 0.557054 0.5
1921 2 0.607055 0.557054 0.5
1928 2 0.606247 0.556927 0.494043
1779 2 0.3988 0.566525 0.496954
1922 2 0.6012 0.566525 0.496954
1771 2 0.405859 0.575184 0.493825
1923 2 0.594141 0.575184 0.493825
1772 2 0.412206 0.583406 0.496871
1916 2 0.587794 0.583406 0.496871
1773 2 0.419555 0.590799 0.5
2206 2 0.420725 0.590693 0.493744
1908 2 0.580445 0.590799 0.5
2163 2 0.579275 0.590693 0.493744
2205 2 0.428025 0.597377 0.496823
2164 2 0.571975 0.597377 0.496823
2135 2 0.439818 0.604666 0.49486
2154 2 0.560182 0.604666 0.49486
2088 2 0.451401 0.610481 0.494698
2080 2 0.548599 0.610481 0.494698
2087 2 0.463241 0.614948 0.494632
2086 2 0.47535 0.618132 0.494605
2082 2 0.52465 0.618132 0.494605
2081 2 0.536759 0.614948 0.494632
2085 2 0.487625 0.620032 0.494572
2084 2 0.5 0.620669 0.494576
2083 2 0.512375 0.620032 0.494572
2408 2 0.481823 0.380061 0.5
1249 2 0.487625 0.379968 0.505428
1255 2 0.5 0.379331 0.505424
2406 2 0.494001 0.378839 0.5
2404 2 0.505999 0.378839 0.5
1260 2 0.512375 0.379968 0.505428
2402 2 0.518177 0.380061 0.5
1234 2 0.463241 0.385052 0.505368
2412 2 0.458302 0.386083 0.5
2410 2 0.470022 0.382454 0.5
1242 2 0.47535 0.381868 0.505395
1264 2 0.52465 0.381868 0.505395
2400 2 0.529978 0.382454 0.5
1267 2 0.536759 0.385052 0.505368
2398 2 0.541698 0.386083 0.5
2414 2 0.447106 0.39083 0.5
1225 2 0.451401 0.389519 0.505302
1269 2 0.548599 0.389519 0.505302
2396 2 0.552894 0.39083 0.5
1218 2 0.436224 0.396808 0.5
2424 2 0.439818 0.395334 0.50514
2395 2 0.560182 0.395334 0.50514
1217 2 0.563776 0.396808 0.5
2374 2 0.428025 0.402623 0.503177
2335 2 0.571975 0.402623 0.503177
2373 2 0.420725 0.409307 0.506256
2336 2 0.579275 0.409307 0.506256
1504 2 0.412206 0.416594 0.503129
1672 2 0.587794 0.416594 0.503129
1505 2 0.404973 0.424596 0.5
1512 2 0.405859 0.424816 0.506175
1669 2 0.594141 0.424816 0.506175
1670 2 0.595027 0.424596 0.5
1513 2 0.3988 0.433475 0.503046
1666 2 0.6012 0.433475 0.503046
1520 2 0.393753 0.443073 0.505957
1661 2 0.606247 0.443073 0.505957
1521 2 0.388285 0.453193 0.502917
1656 2 0.611715 0.453193 0.502917
1522 2 0.38415 0.46402 0.5
1527 2 0.384864 0.464103 0.5057
1649 2 0.615136 0.464103 0.5057
1650 2 0.61585 0.46402 0.5
1528 2 0.381358 0.475525 0.502785
1642 2 0.618642 0.475525 0.502785
1533 2 0.379968 0.487548 0.505394
1633 2 0.620032 0.487548 0.505394
1634 2 0.620669 0.487556 0.5
2289 2 0.378839 0.5 0.502615
1 1 0.5 0.5 0.5
2 1 0.5 0.5 0.5
3 1 0.5 0.5 0.5
4 1 0.5 0.5 0.5
5 1 0.5 0.5 0.5
6 1 0.5 0.5 0.5
7 1 0.5 0.5 0.5
8 1 0.5 0.5 0.5
9 1 0.5 0.5 0.5
10 1 0.5 0.5 0.5
11 1 0.5 0.5 0.5
12 1 0.5 0.5 0.5
13 1 0.5 0.5 0.5
14 1 0.5 0.5 0.5
15 1 0.5 0.5 0.5
16 1 0.5 0.5 0.5
17 1 0.5 0.5 0.5
18 1 0.5 0.5 0.5
19 1 0.5 0.5 0.5
20 1 0.5 0.5 0.5
21 1 0.5 0.5 0.5
22 1 0.5 0.5 0.5
23 1 0.5 0.5 0.5
24 1 0.5 0.5 0.5
25 1 0.5 0.5 0.5
26 1 0.5 0.5 0.5
27 1 0.5 0.5 0.5
28 1 0.5 0.5 0.5
29 1 0.5 0.5 0.5
30 1 0.5 0.5 0.5
31 1 0.5 0.5 0.5
32 1 0.5 0.5 0.5
33 1 0.5 0.5 0.5
34 1 0.5 0.5 0.5
35 1 0.5 0.5 0.5
36 1 0.5 0.5 0.5
37 1 0.5 0.5 0.5
38 1 0.5 0.5 0.5
39 1 0.5 0.5 0.5
40 1 0.5 0.5 0.5
41 1 0.5 0.5 0.5
42 1 0.5 0.5 0.5
43 1 0.5 0.5 0.5
44 1 0.5 0.5 0.5
45 1 0.5 0.5 0.5
46 1 0.5 0.5 0.5
47 1 0.5 0.5 0.5
48 1 0.5 0.5 0.5
49 1 0.5 0.5 0.5
50 1 0.5 0.5 0.5
51 1 0.5 0.5 0.5
52 1 0.5 0.5 0.5
53 1 0.5 0.5 0.5
54 1 0.5 0.5 0.5
55 1 0.5 0.5 0.5
56 1 0.5 0.5 0.5
57 1 0.5 0.5 0.5
58 1 0.5 0.5 0.5
59 1 0.5 0.5 0.5
60 1 0.5 0.5 0.5
61 1 0.5 0.5 0.5
62 1 0.5 0.5 0.5
63 1 0.5 0.5 0.5
64 1 0.5 0.5 0.5
65 1 0.5 0.5 0.5
66 1 0.5 0.5 0.5
67 1 0.5 0.5 0.5
68 1 0.5 0.5 0.5
69 1 0.5 0.5 0.5
70 1 0.5 0.5 0.5
71 1 0.5 0.5 0.5
72 1 0.5 0.5 0.5
73 1 0.5 0.5 0.5
74 1 0.5 0.5 0.5
75 1 0.5 0.5 0.5
76 1 0.5 0.5 0.5
77 1 0.5 0.5 0.5
78 1 0.5 0.5 0.5
79 1 0.5 0.5 0.5
80 1 0.5 0.5 0.5
81 1 0.5 0.5 0.5
82 1 0.5 0.5 0.5
83 1 0.5 0.5 0.5
84 1 0.5 0.5 0.5
85 1 0.5 0.5 0.5
86 1 0.5 0.5 0.5
87 1 0.5 0.5 0.5
88 1 0.5 0.5 0.5
89 1 0.5 0.5 0.5
90 1 0.5 0.5 0.5
91 1 0.5 0.5 0.5
92 1 0.5 0.5 0.5
93 1 0.5 0.5 0.5
94 1 0.5 0.5 0.5
95 1 0.5 0.5 0.5
96 1 0.5 0.5 0.5
97 1 0.5 0.5 0.5
98 1 0.5 0.5 0.5
99 1 0.5 0.5 0.5
100 1 0.5 0.5 0.5
101 1 0.5 0.5 0.5
102 1 0.5 0.5 0.5
103 1 0.5 0.5 0.5
104 1 0.5 0.5 0.5
105 1 0.5 0.5 0.5
106 1 0.5 0.5 0.5
107 1 0.5 0.5 0.5
108 1 0.5 0.5 0.5
109 1 0.5 0.5 0.5
110 1 0.5 0.5 0.5
111 1 0.5 0.5 0.5
112 1 0.5 0.5 0.5
113 1 0.5 0.5 0.5
114 1 0.5 0.5 0.5
115 1 0.5 0.5 0.5
116 1 0.5 0.5 0.5
117 1 0.5 0.5 0.5
118 1 0.5 0.5 0.5
119 1 0.5 0.5 0.5
120 1 0.5 0.5 0.5
121 1 0.5 0.5 0.5
122 1 0.5 0.5 0.5
123 1 0.5 0.5 0.5
124 1 0.5 0.5 0.5
125 1 0.5 0.5 0.5
126 1 0.5 0.5 0.5
127 1 0.5 0.5 0.5
128 1 0.5 0.5 0.5
129 1 0.5 0.5 0.5
130 1 0.5 0.5 0.5
131 1 0.5 0.5 0.5
132 1 0.5 0.5 0.5
133 1 0.5 0.5 0.5
134 1 0.5 0.5 0.5
135 1 0.5 0.5 0.5
136 1 0.5 0.5 0.5
137 1 0.5 0.5 0.5
138 1 0.5 0.5 0.5
139 1 0.5 0.5 0.5
140 1 0.5 0.5 0.5
141 1 0.5 0.5 0.5
142 1 0.5 0.5 0.5
143 1 0.5 0.5 0.5
144 1 0.5 0.5 0.5
145 1 0.5 0.5 0.5
146 1 0.5 0.5 0.5
147 1 0.5 0.5 0.5
148 1 0.5 0.5 0.5
149 1 0.5 0.5 0.5
150 1 0.5 0.5 0.5
151 1 0.5 0.5 0.5
152 1 0.5 0.5 0.5
153 1 0.5 0.5 0.5
154 1 0.5 0.5 0.5
155 1 0.5 0.5 0.5
156 1 0.5 0.5 0.5
157 1 0.5 0.5 0.5
158 1 0.5 0.5 0.5
159 1 0.5 0.5 0.5
160 1 0.5 0.5 0.5
161 1 0.5 0.5 0.5
162 1 0.5 0.5 0.5
163 1 0.5 0.5 0.5
164 1 0.5 0.5 0.5
165 1 0.5 0.5 0.5
166 1 0.5 0.5 0.5
167 1 0.5 0.5 0.5
168 1 0.5 0.5 0.5
169 1 0.5 0.5 0.5
170 1 0.5 0.5 0.5
171 1 0.5 0.5 0.5
172 1 0.5 0.5 0.5
173 1 0.5 0.5 0.5
174 1 0.5 0.5 0.5
175 1 0.5 0.5 0.5
176 1 0.5 0.5 0.5
177 1 0.5 0.5 0.5
178 1 0.5 0.5 0.5
179 1 0.5 0.5 0.5
180 1 0.5 0.5 0.5
181 1 0.5 0.5 0.5
182 1 0.5 0.5 0.5
183 1 0.5 0.5 0.5
184 1 0.5 0.5 0.5
185 1 0.5 0.5 0.5
186 1 0.5 0.5 0.5
187 1 0.5 0.5 0.5
188 1 0.5 0.5 0.5
189 1 0.5 0.5 0.5
190 1 0.5 0.5 0.5
191 1 0.5 0.5 0.5
192 1 0.5 0.5 0.5
193 1 0.5 0.5 0.5
194 1 0.5 0.5 0.5
195 1 0.5 0.5 0.5
196 1 0.5 0.5 0.5
197 1 0.5 0.5 0.5
198 1 0.5 0.5 0.5
199 1 0.5 0.5 0.5
200 1 0.5 0.5 0.5
201 1 0.5 0.5 0.5
202 1 0.5 0.5 0.5
203 1 0.5 0.5 0.5
204 1 0.5 0.5 0.5
205 1 0.5 0.5 0.5
206 1 0.5 0.5 0.5
207 1 0.5 0.5 0.5
208 1 0.5 0.5 0.5
209 1 0.5 0.5 0.5
210 1 0.5 0.5 0.5
211 1 0.5 0.5 0.5
212 1 0.5 0.5 0.5
213 1 0.5 0.5 0.5
214 1 0.5 0.5 0.5
215 1 0.5 0.5 0.5
216 1 0.5 0.5 0.5
217 1 0.5 0.5 0.5
218 1 0.5 0.5 0.5
219 1 0.5 0.5 0.5
220 1 0.5 0.5 0.5
221 1 0.5 0.5 0.5
222 1 0.5 0.5 0.5
223 1 0.5 0.5 0.5
224 1 0.5 0.5 0.5
225 1 0.5 0.5 0.5
226 1 0.5 0.5 0.5
227 1 0.5 0.5 0.5
228 1 0.5 0.5 0.5
229 1 0.5 0.5 0.5
230 1 0.5 0.5 0.5
231 1 0.5 0.5 0.5
232 1 0.5 0.5 0.5
233 1 0.5 0.5 0.5
234 1 0.5 0.5 0.5
235 1 0.5 0.5 0.5
236 1 0.5 0.5 0.5
237 1 0.5 0.5 0.5
238 1 0.5 0.5 0.5
239 1 0.5 0.5 0.5
240 1 0.5 0.5 0.5
241 1 0.5 0.5 0.5
242 1 0.5 0.5 0.5
243 1 0.5 0.5 0.5
244 1 0.5 0.5 0.5
245 1 0.5 0.5 0.5
246 1 0.5 0.5 0.5
247 1 0.5 0.5 0.5
248 1 0.5 0.5 0.5
249 1 0.5 0.5 0.5
250 1 0.5 0.5 0.5
251 1 0.5 0.5 0.5
252 1 0.5 0.5 0.5
253 1 0.5 0.5 0.5
254 1 0.5 0.5 0.5
255 1 0.5 0.5 0.5
256 1 0.5 0.5 0.5
257 1 0.5 0.5 0.5
258 1 0.5 0.5 0.5
259 1 0.5 0.5 0.5
260 1 0.5 0.5 0.5
261 1 0.5 0.5 0.5
262 1 0.5 0.5 0.5
263 1 0.5 0.5 0.5
264 1 0.5 0.5 0.5
265 1 0.5 0.5 0.5
266 1 0.5 0.5 0.5
267 1 0.5 0.5 0.5
268 1 0.5 0.5 0.5
269 1 0.5 0.5 0.5
270 1 0.5 0.5 0.5
271 1 0.5 0.5 0.5
272 1 0.5 0.5 0.5
273 1 0.5 0.5 0.5
274 1 0.5 0.5 0.5
275 1 0.5 0.5 0.5
276 1 0.5 0.5 0.5
277 1 0.5 0.5 0.5
278 1 0.5 0.5 0.5
279 1 0.5 0.5 0.5
280 1 0.5 0.5 0.5
281 1 0.5 0.5 0.5
282 1 0.5 0.5 0.5
283 1 0.5 0.5 0.5
284 1 0.5 0.5 0.5
285 1 0.5 0.5 0.5
286 1 0.5 0.5 0.5
287 1 0.5 0.5 0.5
288 1 0.5 0.5 0.5
289 1 0.5 0.5 0.5
290 1 0.5 0.5 0.5
291 1 0.5 0.5 0.5
292 1 0.5 0.5 0.5
293 1 0.5 0.5 0.5
294 1 0.5 0.5 0.5
295 1 0.5 0.5 0.5
296 1 0.5 0.5 0.5
297 1 0.5 0.5 0.5
298 1 0.5 0.5 0.5
299 1 0.5 0.5 0.5
300 1 0.5 0.5 0.5
301 1 0.5 0.5 0.5
302 1 0.5 0.5 0.5
303 1 0.5 0.5 0.5
304 1 0.5 0.5 0.5
305 1 0.5 0.5 0.5
306 1 0.5 0.5 0.5
307 1 0.5 0.5 0.5
308 1 0.5 0.5 0.5
309 1 0.5 0.5 0.5
310 1 0.5 0.5 0.5
311 1 0.5 0.5 0.5
312 1 0.5 0.5 0.5
313 1 0.5 0.5 0.5
314 1 0.5 0.5 0.5
315 1 0.5 0.5 0.5
316 1 0.5 0.5 0.5
317 1 0.5 0.5 0.5
318 1 0.5 0.5 0.5
319 1 0.5 0.5 0.5
320 1 0.5 0.5 0.5
321 1 0.5 0.5 0.5
322 1 0.5 0.5 0.5
323 1 0.5 0.5 0.5
324 1 0.5 0.5 0.5
325 1 0.5 0.5 0.5
326 1 0.5 0.5 0.5
327 1 0.5 0.5 0.5
328 1 0.5 0.5 0.5
329 1 0.5 0.5 0.5
330 1 0.5 0.5 0.5
331 1 0.5 0.5 0.5
332 1 0.5 0.5 0.5
333 1 0.5 0.5 0.5
334 1 0.5 0.5 0.5
335 1 0.5 0.5 0.5
336 1 0.5 0.5 0.5
337 1 0.5 0.5 0.5
338 1 0.5 0.5 0.5
339 1 0.5 0.5 0.5
340 1 0.5 0.5 0.5
341 1 0.5 0.5 0.5
342 1 0.5 0.5 0.5
343 1 0.5 0.5 0.5
344 1 0.5 0.5 0.5
345 1 0.5 0.5 0.5
346 1 0.5 0.5 0.5
347 1 0.5 0.5 0.5
348 1 0.5 0.5 0.5
349 1 0.5 0.5 0.5
350 1 0.5 0.5 0.5
351 1 0.5 0.5 0.5
352 1 0.5 0.5 0.5
353 1 0.5 0.5 0.5
354 1 0.5 0.5 0.5
355 1 0.5 0.5 0.5
356 1 0.5 0.5 0.5
357 1 0.5 0.5 0.5
358 1 0.5 0.5 0.5
359 1 0.5 0.5 0.5
360 1 0.5 0.5 0.5
361 1 0.5 0.5 0.5
362 1 0.5 0.5 0.5
363 1 0.5 0.5 0.5
364 1 0.5 0.5 0.5
365 1 0.5 0.5 0.5
366 1 0.5 0.5 0.5
367 1 0.5 0.5 0.5
368 1 0.5 0.5 0.5
369 1 0.5 0.5 0.5
370 1 0.5 0.5 0.5
371 1 0.5 0.5 0.5
372 1 0.5 0.5 0.5
373 1 0.5 0.5 0.5
374 1 0.5 0.5 0.5
375 1 0.5 0.5 0.5
376 1 0.5 0.5 0.5
377 1 0.5 0.5 0.5
378 1 0.5 0.5 0.5
379 1 0.5 0.5 0.5
380 1 0.5 0.5 0.5
381 1 0.5 0.5 0.5
382 1 0.5 0.5 0.5
383 1 0.5 0.5 0.5
384 1 0.5 0.5 0.5
385 1 0.5 0.5 0.5
386 1 0.5 0.5 0.5
387 1 0.5 0.5 0.5
388 1 0.5 0.5 0.5
389 1 0.5 0.5 0.5
390 1 0.5 0.5 0.5
391 1 0.5 0.5 0.5
392 1 0.5 0.5 0.5
393 1 0.5 0.5 0.5
394 1 0.5 0.5 0.5
395 1 0.5 0.5 0.5
396 1 0.5 0.5 0.5
397 1 0.5 0.5 0.5
398 1 0.5 0.5 0.5
399 1 0.5 0.5 0.5
400 1 0.5 0.5 0.5
401 1 0.5 0.5 0.5
402 1 0.5 0.5 0.5
403 1 0.5 0.5 0.5
404 1 0.5 0.5 0.5
405 1 0.5 0.5 0.5
406 1 0.5 0.5 0.5
407 1 0.5 0.5 0.5
408 1 0.5 0.5 0.5
409 1 0.5 0.5 0.5
410 1 0.5 0.5 0.5
411 1 0.5 0.5 0.5
412 1 0.5 0.5 0.5
413 1 0.5 0.5 0.5
414 1 0.5 0.5 0.5
415 1 0.5 0.5 0.5
416 1 0.5 0.5 0.5
417 1 0.5 0.5 0.5
418 1 0.5 0.5 0.5
419 1 0.5 0.5 0.5
420 1 0.5 0.5 0.5
421 1 0.5 0.5 0.5
422 1 0.5 0.5 0.5
423 1 0.5 0.5 0.5
424 1 0.5 0.5 0.5
425 1 0.5 0.5 0.5
426 1 0.5 0.5 0.5
427 1 0.5 0.5 0.5
428 1 0.5 0.5 0.5
429 1 0.5 0.5 0.5
430 1 0.5 0.5 0.5
431 1 0.5 0.5 0.5
432 1 0.5 0.5 0.5
433 1 0.5 0.5 0.5
434 1 0.5 0.5 0.5
435 1 0.5 0.5 0.5
436 1 0.5 0.5 0.5
437 1 0.5 0.5 0.5
438 1 0.5 0.5 0.5
439 1 0.5 0.5 0.5
440 1 0.5 0.5 0.5
441 1 0.5 0.5 0.5
442 1 0.5 0.5 0.5
443 1 0.5 0.5 0.5
444 1 0.5 0.5 0.5
445 1 0.5 0.5 0.5
446 1 0.5 0.5 0.5
447 1 0.5 0.5 0.5
448 1 0.5 0.5 0.5
449 1 0.5 0.5 0.5
450 1 0.5 0.5 0.5
451 1 0.5 0.5 0.5
452 1 0.5 0.5 0.5
453 1 0.5 0.5 0.5
454 1 0.5 0.5 0.5
455 1 0.5 0.5 0.5
456 1 0.5 0.5 0.5
457 1 0.5 0.5 0.5
458 1 0.5 0.5 0.5
459 1 0.5 0.5 0.5
460 1 0.5 0.5 0.5
461 1 0.5 0.5 0.5
462 1 0.5 0.5 0.5
463 1 0.5 0.5 0.5
464 1 0.5 0.5 0.5
465 1 0.5 0.5 0.5
466 1 0.5 0.5 0.5
467 1 0.5 0.5 0.5
468 1 0.5 0.5 0.5
469 1 0.5 0.5 0.5
470 1 0.5 0.5 0.5
471 1 0.5 0.5 0.5
472 1 0.5 0.5 0.5
473 1 0.5 0.5 0.5
474 1 0.5 0.5 0.5
475 1 0.5 0.5 0.5
476 1 0.5 0.5 0.5
477 1 0.5 0.5 0.5
478 1 0.5 0.5 0.5
479 1 0.5 0.5 0.5
480 1 0.5 0.5 0.5
481 1 0.5 0.5 0.5
482 1 0.5 0.5 0.5
483 1 0.5 0.5 0.5
484 1 0.5 0.5 0.5