ITEM: TIMESTEP
0
ITEM: NUMBER OF ATOMS
400
ITEM: BOX BOUNDS pp pp pp
-20 20
-20 20
-20 20
ITEM: ATOMS id type xs ys zs vz
1 1 0.25 0.25 0.5 2
2 1 0.25 0.275 0.5 1
3 1 0.25 0.3 0.5 1
4 1 0.25 0.325 0.5 4
5 1 0.25 0.35 0.5 5
6 1 0.25 0.375 0.5 1
7 1 0.25 0.4 0.5 4
8 1 0.25 0.425 0.5 2
9 1 0.25 0.45 0.5 6
10 1 0.25 0.475 0.5 1
11 1 0.25 0.5 0.5 36
12 1 0.25 0.525 0.5 1
13 1 0.25 0.55 0.5 1
14 1 0.25 0.575 0.5 8
15 1 0.25 0.6 0.5 1
16 1 0.25 0.625 0.5 2
17 1 0.25 0.65 0.5 3
18 1 0.25 0.675 0.5 2
19 1 0.25 0.7 0.5 1
20 1 0.25 0.725 0.5 8
21 1 0.275 0.25 0.5 26
22 1 0.275 0.275 0.5 1
23 1 0.275 0.3 0.5 1
24 1 0.275 0.325 0.5 1
25 1 0.275 0.35 0.5 3
26 1 0.275 0.375 0.5 1
27 1 0.275 0.4 0.5 1
28 1 0.275 0.425 0.5 1
29 1 0.275 0.45 0.5 1
30 1 0.275 0.475 0.5 1
31 1 0.275 0.5 0.5 30
32 1 0.275 0.525 0.5 3
33 1 0.275 0.55 0.5 1
34 1 0.275 0.575 0.5 19
35 1 0.275 0.6 0.5 1
36 1 0.275 0.625 0.5 2
37 1 0.275 0.65 0.5 1
38 1 0.275 0.675 0.5 1
39 1 0.275 0.7 0.5 2
40 1 0.275 0.725 0.5 1
41 1 0.3 0.25 0.5 1
42 1 0.3 0.275 0.5 43
43 1 0.3 0.3 0.5 1
44 1 0.3 0.325 0.5 31
45 1 0.3 0.35 0.5 1
46 1 0.3 0.375 0.5 1
47 1 0.3 0.4 0.5 1
48 1 0.3 0.425 0.5 1
49 1 0.3 0.45 0.5 1
50 1 0.3 0.475 0.5 28
51 1 0.3 0.5 0.5 1
52 1 0.3 0.525 0.5 1
53 1 0.3 0.55 0.5 1
54 1 0.3 0.575 0.5 1
55 1 0.3 0.6 0.5 16
56 1 0.3 0.625 0.5 1
57 1 0.3 0.65 0.5 1
58 1 0.3 0.675 0.5 33
59 1 0.3 0.7 0.5 4
60 1 0.3 0.725 0.5 2
61 1 0.325 0.25 0.5 1
62 1 0.325 0.275 0.5 2
63 1 0.325 0.3 0.5 1
64 1 0.325 0.325 0.5 1
65 1 0.325 0.35 0.5 19
66 1 0.325 0.375 0.5 16
67 1 0.325 0.4 0.5 1
68 1 0.325 0.425 0.5 1
69 1 0.325 0.45 0.5 2
70 1 0.325 0.475 0.5 1
71 1 0.325 0.5 0.5 4
72 1 0.325 0.525 0.5 22
73 1 0.325 0.55 0.5 3
74 1 0.325 0.575 0.5 3
75 1 0.325 0.6 0.5 1
76 1 0.325 0.625 0.5 1
77 1 0.325 0.65 0.5 1
78 1 0.325 0.675 0.5 1
79 1 0.325 0.7 0.5 1
80 1 0.325 0.725 0.5 20
81 1 0.35 0.25 0.5 1
82 1 0.35 0.275 0.5 4
83 1 0.35 0.3 0.5 1
84 1 0.35 0.325 0.5 2
85 1 0.35 0.35 0.5 1
86 1 0.35 0.375 0.5 24
87 1 0.35 0.4 0.5 1
88 1 0.35 0.425 0.5 12
89 1 0.35 0.45 0.5 1
90 1 0.35 0.475 0.5 56
91 1 0.35 0.5 0.5 1
92 1 0.35 0.525 0.5 3
93 1 0.35 0.55 0.5 1
94 1 0.35 0.575 0.5 1
95 1 0.35 0.6 0.5 1
96 1 0.35 0.625 0.5 1
97 1 0.35 0.65 0.5 6
98 1 0.35 0.675 0.5 2
99 1 0.35 0.7 0.5 31
100 1 0.35 0.725 0.5 1
101 1 0.375 0.25 0.5 28
102 1 0.375 0.275 0.5 1
103 1 0.375 0.3 0.5 1
104 1 0.375 0.325 0.5 13
105 1 0.375 0.35 0.5 1
106 1 0.375 0.375 0.5 1
107 1 0.375 0.4 0.5 2
108 1 0.375 0.425 0.5 1
109 1 0.375 0.45 0.5 2
110 1 0.375 0.475 0.5 1
111 1 0.375 0.5 0.5 1
112 1 0.375 0.525 0.5 6
113 1 0.375 0.55 0.5 1
114 1 0.375 0.575 0.5 1
115 1 0.375 0.6 0.5 3
116 1 0.375 0.625 0.5 2
117 1 0.375 0.65 0.5 1
118 1 0.375 0.675 0.5 1
119 1 0.375 0.7 0.5 1
120 1 0.375 0.725 0.5 1
121 1 0.4 0.25 0.5 3
122 1 0.4 0.275 0.5 1
123 1 0.4 0.3 0.5 14
124 1 0.4 0.325 0.5 1
125 1 0.4 0.35 0.5 1
126 1 0.4 0.375 0.5 24
127 1 0.4 0.4 0.5 53
128 1 0.4 0.425 0.5 1
129 1 0.4 0.45 0.5 1
130 1 0.4 0.475 0.5 32
131 1 0.4 0.5 0.5 2
132 1 0.4 0.525 0.5 1
133 1 0.4 0.55 0.5 1
134 1 0.4 0.575 0.5 1
135 1 0.4 0.6 0.5 2
136 1 0.4 0.625 0.5 23
137 1 0.4 0.65 0.5 2
138 1 0.4 0.675 0.5 14
139 1 0.4 0.7 0.5 50
140 1 0.4 0.725 0.5 2
141 1 0.425 0.25 0.5 1
142 1 0.425 0.275 0.5 1
143 1 0.425 0.3 0.5 1
144 1 0.425 0.325 0.5 20
145 1 0.425 0.35 0.5 18
146 1 0.425 0.375 0.5 1
147 1 0.425 0.4 0.5 1
148 1 0.425 0.425 0.5 4
149 1 0.425 0.45 0.5 6
150 1 0.425 0.475 0.5 5
151 1 0.425 0.5 0.5 2
152 1 0.425 0.525 0.5 1
153 1 0.425 0.55 0.5 1
154 1 0.425 0.575 0.5 1
155 1 0.425 0.6 0.5 1
156 1 0.425 0.625 0.5 1
157 1 0.425 0.65 0.5 1
158 1 0.425 0.675 0.5 1
159 1 0.425 0.7 0.5 1
160 1 0.425 0.725 0.5 1
161 1 0.45 0.25 0.5 1
162 1 0.45 0.275 0.5 1
163 1 0.45 0.3 0.5 7
164 1 0.45 0.325 0.5 1
165 1 0.45 0.35 0.5 28
166 1 0.45 0.375 0.5 1
167 1 0.45 0.4 0.5 3
168 1 0.45 0.425 0.5 1
169 1 0.45 0.45 0.5 11
170 1 0.45 0.475 0.5 1
171 1 0.45 0.5 0.5 21
172 1 0.45 0.525 0.5 1
173 1 0.45 0.55 0.5 9
174 1 0.45 0.575 0.5 28
175 1 0.45 0.6 0.5 11
176 1 0.45 0.625 0.5 1
177 1 0.45 0.65 0.5 2
178 1 0.45 0.675 0.5 5
179 1 0.45 0.7 0.5 1
180 1 0.45 0.725 0.5 16
181 1 0.475 0.25 0.5 1
182 1 0.475 0.275 0.5 1
183 1 0.475 0.3 0.5 2
184 1 0.475 0.325 0.5 1
185 1 0.475 0.35 0.5 1
186 1 0.475 0.375 0.5 13
187 1 0.475 0.4 0.5 1
188 1 0.475 0.425 0.5 1
189 1 0.475 0.45 0.5 1
190 1 0.475 0.475 0.5 17
191 1 0.475 0.5 0.5 1
192 1 0.475 0.525 0.5 1
193 1 0.475 0.55 0.5 1
194 1 0.475 0.575 0.5 1
195 1 0.475 0.6 0.5 1
196 1 0.475 0.625 0.5 24
197 1 0.475 0.65 0.5 19
198 1 0.475 0.675 0.5 1
199 1 0.475 0.7 0.5 1
200 1 0.475 0.725 0.5 1
201 1 0.5 0.25 0.5 1
202 1 0.5 0.275 0.5 27
203 1 0.5 0.3 0.5 1
204 1 0.5 0.325 0.5 53
205 1 0.5 0.35 0.5 2
206 1 0.5 0.375 0.5 1
207 1 0.5 0.4 0.5 6
208 1 0.5 0.425 0.5 1
209 1 0.5 0.45 0.5 1
210 1 0.5 0.475 0.5 1
211 1 0.5 0.5 0.5 3
212 1 0.5 0.525 0.5 1
213 1 0.5 0.55 0.5 1
214 1 0.5 0.575 0.5 1
215 1 0.5 0.6 0.5 1
216 1 0.5 0.625 0.5 1
217 1 0.5 0.65 0.5 1
218 1 0.5 0.675 0.5 54
219 1 0.5 0.7 0.5 7
220 1 0.5 0.725 0.5 1
221 1 0.525 0.25 0.5 6
222 1 0.525 0.275 0.5 1
223 1 0.525 0.3 0.5 1
224 1 0.525 0.325 0.5 1
225 1 0.525 0.35 0.5 1
226 1 0.525 0.375 0.5 7
227 1 0.525 0.4 0.5 1
228 1 0.525 0.425 0.5 1
229 1 0.525 0.45 0.5 4
230 1 0.525 0.475 0.5 1
231 1 0.525 0.5 0.5 23
232 1 0.525 0.525 0.5 1
233 1 0.525 0.55 0.5 1
234 1 0.525 0.575 0.5 1
235 1 0.525 0.6 0.5 2
236 1 0.525 0.625 0.5 1
237 1 0.525 0.65 0.5 1
238 1 0.525 0.675 0.5 1
239 1 0.525 0.7 0.5 1
240 1 0.525 0.725 0.5 1
241 1 0.55 0.25 0.5 2
242 1 0.55 0.275 0.5 1
243 1 0.55 0.3 0.5 4
244 1 0.55 0.325 0.5 1
245 1 0.55 0.35 0.5 10
246 1 0.55 0.375 0.5 1
247 1 0.55 0.4 0.5 1
248 1 0.55 0.425 0.5 15
249 1 0.55 0.45 0.5 1
250 1 0.55 0.475 0.5 40
251 1 0.55 0.5 0.5 1
252 1 0.55 0.525 0.5 1
253 1 0.55 0.55 0.5 1
254 1 0.55 0.575 0.5 1
255 1 0.55 0.6 0.5 1
256 1 0.55 0.625 0.5 1
257 1 0.55 0.65 0.5 1
258 1 0.55 0.675 0.5 9
259 1 0.55 0.7 0.5 47
260 1 0.55 0.725 0.5 46
261 1 0.575 0.25 0.5 1
262 1 0.575 0.275 0.5 1
263 1 0.575 0.3 0.5 2
264 1 0.575 0.325 0.5 4
265 1 0.575 0.35 0.5 1
266 1 0.575 0.375 0.5 10
267 1 0.575 0.4 0.5 1
268 1 0.575 0.425 0.5 2
269 1 0.575 0.45 0.5 2
270 1 0.575 0.475 0.5 1
271 1 0.575 0.5 0.5 7
272 1 0.575 0.525 0.5 1
273 1 0.575 0.55 0.5 1
274 1 0.575 0.575 0.5 9
275 1 0.575 0.6 0.5 1
276 1 0.575 0.625 0.5 22
277 1 0.575 0.65 0.5 1
278 1 0.575 0.675 0.5 1
279 1 0.575 0.7 0.5 1
280 1 0.575 0.725 0.5 1
281 1 0.6 0.25 0.5 1
282 1 0.6 0.275 0.5 1
283 1 0.6 0.3 0.5 2
284 1 0.6 0.325 0.5 1
285 1 0.6 0.35 0.5 3
286 1 0.6 0.375 0.5 1
287 1 0.6 0.4 0.5 30
288 1 0.6 0.425 0.5 4
289 1 0.6 0.45 0.5 1
290 1 0.6 0.475 0.5 20
291 1 0.6 0.5 0.5 1
292 1 0.6 0.525 0.5 1
293 1 0.6 0.55 0.5 2
294 1 0.6 0.575 0.5 1
295 1 0.6 0.6 0.5 1
296 1 0.6 0.625 0.5 2
297 1 0.6 0.65 0.5 5
298 1 0.6 0.675 0.5 1
299 1 0.6 0.7 0.5 2
300 1 0.6 0.725 0.5 16
301 1 0.625 0.25 0.5 3
302 1 0.625 0.275 0.5 7
303 1 0.625 0.3 0.5 1
304 1 0.625 0.325 0.5 2
305 1 0.625 0.35 0.5 2
306 1 0.625 0.375 0.5 15
307 1 0.625 0.4 0.5 1
308 1 0.625 0.425 0.5 1
309 1 0.625 0.45 0.5 1
310 1 0.625 0.475 0.5 1
311 1 0.625 0.5 0.5 3
312 1 0.625 0.525 0.5 1
313 1 0.625 0.55 0.5 1
314 1 0.625 0.575 0.5 3
315 1 0.625 0.6 0.5 1
316 1 0.625 0.625 0.5 2
317 1 0.625 0.65 0.5 3
318 1 0.625 0.675 0.5 1
319 1 0.625 0.7 0.5 1
320 1 0.625 0.725 0.5 1
321 1 0.65 0.25 0.5 9
322 1 0.65 0.275 0.5 1
323 1 0.65 0.3 0.5 1
324 1 0.65 0.325 0.5 5
325 1 0.65 0.35 0.5 1
326 1 0.65 0.375 0.5 1
327 1 0.65 0.4 0.5 20
328 1 0.65 0.425 0.5 2
329 1 0.65 0.45 0.5 48
330 1 0.65 0.475 0.5 1
331 1 0.65 0.5 0.5 4
332 1 0.65 0.525 0.5 2
333 1 0.65 0.55 0.5 1
334 1 0.65 0.575 0.5 1
335 1 0.65 0.6 0.5 1
336 1 0.65 0.625 0.5 61
337 1 0.65 0.65 0.5 1
338 1 0.65 0.675 0.5 15
339 1 0.65 0.7 0.5 1
340 1 0.65 0.725 0.5 8
341 1 0.675 0.25 0.5 1
342 1 0.675 0.275 0.5 1
343 1 0.675 0.3 0.5 1
344 1 0.675 0.325 0.5 1
345 1 0.675 0.35 0.5 1
346 1 0.675 0.375 0.5 1
347 1 0.675 0.4 0.5 2
348 1 0.675 0.425 0.5 1
349 1 0.675 0.45 0.5 2
350 1 0.675 0.475 0.5 1
351 1 0.675 0.5 0.5 1
352 1 0.675 0.525 0.5 5
353 1 0.675 0.55 0.5 1
354 1 0.675 0.575 0.5 8
355 1 0.675 0.6 0.5 1
356 1 0.675 0.625 0.5 1
357 1 0.675 0.65 0.5 1
358 1 0.675 0.675 0.5 4
359 1 0.675 0.7 0.5 8
360 1 0.675 0.725 0.5 1
361 1 0.7 0.25 0.5 1
362 1 0.7 0.275 0.5 10
363 1 0.7 0.3 0.5 1
364 1 0.7 0.325 0.5 4
365 1 0.7 0.35 0.5 1
366 1 0.7 0.375 0.5 41
367 1 0.7 0.4 0.5 1
368 1 0.7 0.425 0.5 8
369 1 0.7 0.45 0.5 1
370 1 0.7 0.475 0.5 15
371 1 0.7 0.5 0.5 2
372 1 0.7 0.525 0.5 1
373 1 0.7 0.55 0.5 1
374 1 0.7 0.575 0.5 7
375 1 0.7 0.6 0.5 50
376 1 0.7 0.625 0.5 1
377 1 0.7 0.65 0.5 1
378 1 0.7 0.675 0.5 1
379 1 0.7 0.7 0.5 1
380 1 0.7 0.725 0.5 1
381 1 0.725 0.25 0.5 1
382 1 0.725 0.275 0.5 44
383 1 0.725 0.3 0.5 1
384 1 0.725 0.325 0.5 2
385 1 0.725 0.35 0.5 1
386 1 0.725 0.375 0.5 6
387 1 0.725 0.4 0.5 1
388 1 0.725 0.425 0.5 49
389 1 0.725 0.45 0.5 2
390 1 0.725 0.475 0.5 1
391 1 0.725 0.5 0.5 1
392 1 0.725 0.525 0.5 1
393 1 0.725 0.55 0.5 1
394 1 0.725 0.575 0.5 1
395 1 0.725 0.6 0.5 1
396 1 0.725 0.625 0.5 1
397 1 0.725 0.65 0.5 21
398 1 0.725 0.675 0.5 19
399 1 0.725 0.7 0.5 1
400 1 0.725 0.725 0.5 27
