LAMMPS Description

2400	 atoms
2000	 bonds
0	angles
0	dihedrals
0	impropers

2	atom types
1	bond types
0	angle types
0	dihedral types
0	improper types

-10 10 xlo xhi
-10 10 ylo yhi
0 10000 zlo zhi


Masses

	1 1.0
	2 1.0

Atoms

1 1 1 0 -10 -10 0
2 2 2 0 -9.58148 -9.81517 0.889203
3 3 1 0 -10 -9 0
4 4 1 0 -10 -8 0
5 5 1 0 -10 -7 0
6 6 2 0 -9.58148 -6.81517 0.889203
7 7 2 0 -9.68284 -7.75251 1.22254
8 8 2 0 -9.55883 -8.67879 0.866687
9 9 1 0 -10 -6 0
10 10 2 0 -9.58148 -5.81517 0.889203
11 11 2 0 -9.16297 -5.63033 1.77841
12 12 2 0 -10.0344 -5.31028 2.15018
13 13 2 0 -10.613 -4.50088 2.04978
14 14 1 0 -10 -5 0
15 15 1 0 -10 -4 0
16 16 2 0 -9.65615 -4.35991 0.867311
17 17 2 0 -8.90149 -4.04822 1.44466
18 18 2 0 -8.50343 -3.48971 0.716912
19 19 1 0 -10 -3 0
20 20 2 0 -9.65615 -3.35991 0.867311
21 21 1 0 -10 -2 0
22 22 2 0 -9.72752 -2.11547 0.955209
23 23 2 0 -8.95911 -2.42716 1.51413
24 24 2 0 -9.38198 -1.54488 1.72094
25 25 2 0 -10.1366 -2.13316 2.01148
26 26 2 0 -11.1366 -2.13316 2.02357
27 27 1 0 -10 -1 0
28 28 1 0 -10 0 0
29 29 2 0 -9.87599 -0.344617 0.930517
30 30 2 0 -10.2989 -0.519271 1.81972
31 31 2 0 -10.8425 0.203367 2.24656
32 32 2 0 -10.9439 -0.733978 2.57989
33 33 2 0 -11.6908 -1.06384 3.15724
34 34 2 0 -11.6002 -2.02261 3.42661
35 35 2 0 -10.6617 -2.11262 3.75995
36 36 2 0 -10.6617 -1.11269 3.77204
37 37 2 0 -11.116 -1.05801 4.66125
38 38 2 0 -12.0199 -1.23266 4.27093
39 39 2 0 -12.7746 -0.651584 3.96624
40 40 2 0 -13.3907 -0.389766 4.70912
41 41 2 0 -13.028 -0.66865 5.59832
42 42 2 0 -12.4624 0.0856465 5.93165
43 43 2 0 -11.9013 0.503713 6.64603
44 44 2 0 -11.6288 -0.455056 6.56531
45 45 2 0 -11.5048 -0.0880261 5.6434
46 46 2 0 -11.3808 0.279004 4.72149
47 47 2 0 -11.1083 1.23554 4.8254
48 48 2 0 -10.9285 0.814819 5.7146
49 49 2 0 -10.6077 0.0639847 5.13725
50 50 2 0 -9.85307 0.652266 4.84671
51 51 2 0 -9.93474 1.1058 3.95922
52 52 2 0 -10.3576 0.21878 3.77382
53 53 2 0 -9.4191 0.128769 4.10716
54 54 2 0 -9.48813 0.372182 5.07462
55 55 2 0 -8.71972 0.0604871 5.63354
56 56 2 0 -9.14258 -0.114167 6.52275
57 57 2 0 -8.66869 0.550734 7.1001
58 58 2 0 -9.2848 0.812552 7.84297
59 59 2 0 -8.91437 -0.0544369 8.1763
60 60 2 0 -9.46396 0.257258 8.95142
61 61 2 0 -9.2842 -0.163463 9.84062
62 62 2 0 -9.37441 0.498615 10.5846
63 63 2 0 -8.41901 0.782672 10.5039
64 64 1 0 -10 1 0
65 65 1 0 -10 2 0
66 66 1 0 -10 3 0
67 67 2 0 -9.87599 2.65538 0.930517
68 68 2 0 -10.2046 3.59 1.06654
69 69 2 0 -10.5002 4.5419 0.985814
70 70 2 0 -9.63776 4.92279 1.31915
71 71 2 0 -9.68694 4.46793 2.20835
72 72 2 0 -9.62676 3.5733 2.6511
73 73 2 0 -10.5307 3.39865 2.26078
74 74 1 0 -10 4 0
75 75 1 0 -10 5 0
76 76 2 0 -9.9758 5 0.999707
77 77 1 0 -10 6 0
78 78 2 0 -9.9758 6 0.999707
79 79 2 0 -9.79605 5.57928 1.88891
80 80 1 0 -10 7 0
81 81 2 0 -9.58148 7.18483 0.889203
82 82 1 0 -10 8 0
83 83 1 0 -10 9 0
84 84 2 0 -9.82024 8.57928 0.889203
85 85 2 0 -9.86943 8.12442 1.77841
86 86 2 0 -10.0593 8.54067 2.66761
87 87 2 0 -9.6408 8.7255 3.55681
88 88 2 0 -8.88614 9.31378 3.26627
89 89 2 0 -8.25223 9.5756 2.53852
90 90 2 0 -8.8995 10.1706 2.0621
91 91 1 0 -9 -10 0
92 92 2 0 -8.82024 -10.4207 0.889203
93 93 2 0 -8.86943 -10.8756 1.77841
94 94 2 0 -9.59055 -10.4575 2.33086
95 95 2 0 -9.48315 -9.89 3.14719
96 96 2 0 -9.82203 -9.14715 2.56984
97 97 2 0 -10.5574 -8.88533 1.94479
98 98 2 0 -11.4288 -8.56528 2.31656
99 99 2 0 -11.9725 -7.84264 2.7434
100 100 2 0 -12.8439 -7.52259 3.11518
101 101 2 0 -13.2668 -6.64031 3.32198
102 102 2 0 -12.4043 -6.25941 3.65532
103 103 2 0 -12.0339 -7.1264 3.98865
104 104 2 0 -11.2792 -7.70748 4.29334
105 105 2 0 -11.3284 -8.16234 5.18254
106 106 2 0 -11.7513 -8.337 6.07174
107 107 2 0 -12.4982 -8.66686 6.64909
108 108 2 0 -13.1143 -8.40504 7.39197
109 109 2 0 -13.658 -8.8406 8.10939
110 110 2 0 -14.0808 -7.95832 8.31619
111 111 2 0 -14.6245 -7.23568 8.74304
112 112 2 0 -14.3521 -7.35115 9.69824
113 113 2 0 -14.9993 -6.85344 10.2756
114 114 2 0 -14.8753 -7.19805 11.2061
115 115 2 0 -15.2982 -7.37271 12.0953
116 116 2 0 -15.619 -6.62187 12.6727
117 117 1 0 -9 -9 0
118 118 1 0 -9 -8 0
119 119 1 0 -9 -7 0
120 120 1 0 -9 -6 0
121 121 2 0 -8.58148 -5.81517 0.889203
122 122 2 0 -7.81308 -6.12686 1.44812
123 123 1 0 -9 -5 0
124 124 1 0 -9 -4 0
125 125 1 0 -9 -3 0
126 126 1 0 -9 -2 0
127 127 1 0 -9 -1 0
128 128 1 0 -9 0 0
129 129 2 0 -9.18988 0.416248 0.889203
130 130 2 0 -8.55598 0.136898 1.6104
131 131 2 0 -9.2771 0.554965 2.16286
132 132 2 0 -8.71596 0.973032 2.87724
133 133 2 0 -7.76055 1.25709 2.79652
134 134 2 0 -8.21479 1.31177 3.68572
135 135 2 0 -8.60609 2.16955 4.01905
136 136 2 0 -8.18757 2.35438 4.90825
137 137 2 0 -7.44017 2.66664 5.49468
138 138 2 0 -6.6899 2.92846 6.10175
139 139 2 0 -7.56131 3.24851 6.47352
140 140 2 0 -7.75119 3.66476 7.36273
141 141 2 0 -6.99653 4.25304 7.07219
142 142 2 0 -6.99653 4.25304 6.07219
143 143 2 0 -6.43091 5.00734 6.40552
144 144 2 0 -5.56847 5.38823 6.73886
145 145 2 0 -5.54427 5.38823 7.73856
146 146 2 0 -6.08796 6.11087 8.1654
147 147 2 0 -5.34107 6.44073 7.58805
148 148 2 0 -5.21706 7.37535 7.92139
149 149 2 0 -4.65592 7.79341 8.63577
150 150 2 0 -4.99479 8.53627 8.05842
151 151 2 0 -5.35953 8.17635 7.19968
152 152 2 0 -5.08705 8.26867 6.24196
153 153 2 0 -5.95846 8.63655 5.91743
154 154 2 0 -6.32319 8.27663 5.05869
155 155 2 0 -5.68929 7.55887 4.77064
156 156 2 0 -5.6651 7.55887 5.77035
157 157 2 0 -4.89669 7.24717 6.32927
158 158 1 0 -9 1 0
159 159 2 0 -8.93982 1.45354 0.889203
160 160 2 0 -8.91563 1.45354 1.88891
161 161 1 0 -9 2 0
162 162 1 0 -9 3 0
163 163 2 0 -9.18988 3.41625 0.889203
164 164 2 0 -9.01013 2.99553 1.77841
165 165 2 0 -8.25547 2.41445 2.08309
166 166 2 0 -8.82364 2.10275 2.84468
167 167 2 0 -9.69505 1.74284 3.17802
168 168 2 0 -10.599 1.56819 2.7877
169 169 2 0 -11.4704 1.88824 3.15947
170 170 2 0 -11.0724 2.44674 2.43172
171 171 2 0 -10.3221 2.70856 3.0388
172 172 2 0 -10.7763 2.76325 3.928
173 173 2 0 -11.6477 2.40334 4.26133
174 174 2 0 -11.5237 2.05872 5.19185
175 175 2 0 -12.3951 1.6988 5.52518
176 176 2 0 -13.3434 1.39171 5.44446
177 177 2 0 -13.0587 0.76773 4.71671
178 178 2 0 -12.3041 1.35601 4.42617
179 179 2 0 -12.1801 0.429732 4.07032
180 180 2 0 -12.1801 0.429732 3.07032
181 181 1 0 -9 4 0
182 182 1 0 -9 5 0
183 183 2 0 -8.9758 5 0.999707
184 184 1 0 -9 6 0
185 185 1 0 -9 7 0
186 186 1 0 -9 8 0
187 187 2 0 -8.72752 7.88453 0.955209
188 188 1 0 -9 9 0
189 189 1 0 -8 -10 0
190 190 1 0 -8 -9 0
191 191 2 0 -8.18988 -8.58375 0.889203
192 192 2 0 -8.16569 -8.58375 1.88891
193 193 2 0 -8.7818 -8.32193 2.63178
194 194 2 0 -8.32637 -8.36561 3.52099
195 195 2 0 -7.38787 -8.45562 3.85432
196 196 2 0 -6.63321 -8.75326 3.2696
197 197 2 0 -5.99931 -9.47103 2.98154
198 198 2 0 -5.24903 -9.20921 3.58862
199 199 2 0 -5.70327 -9.15452 4.47782
200 200 2 0 -5.81066 -8.60692 5.30764
201 201 2 0 -6.68207 -8.28687 5.67941
202 202 2 0 -6.33822 -8.64679 6.54673
203 203 2 0 -6.76108 -7.76451 6.75353
204 204 2 0 -7.0897 -6.82989 6.88956
205 205 2 0 -7.81081 -6.41182 7.44201
206 206 2 0 -7.75064 -7.30645 7.88476
207 207 2 0 -8.5053 -7.89473 8.1753
208 208 2 0 -8.4811 -7.89473 9.17501
209 209 2 0 -8.7767 -6.94283 9.09428
210 210 2 0 -9.53136 -6.36175 8.78959
211 211 2 0 -9.95422 -6.53641 9.6788
212 212 2 0 -9.77447 -6.95713 10.568
213 213 2 0 -8.91138 -7.31704 10.2137
214 214 2 0 -8.82082 -8.27581 10.483
215 215 2 0 -7.88231 -8.36582 10.8164
216 216 2 0 -7.85812 -8.36582 11.8161
217 217 2 0 -8.47423 -8.104 12.559
218 218 2 0 -8.0188 -8.14768 13.4482
219 219 2 0 -7.67993 -8.89054 14.0255
220 220 2 0 -6.92527 -9.18817 13.4408
221 221 2 0 -6.92527 -9.18817 12.4408
222 222 2 0 -6.55484 -10.0552 12.7741
223 223 2 0 -6.28236 -11.0139 12.6934
224 224 2 0 -6.82605 -10.5959 11.9656
225 225 2 0 -6.25788 -10.2842 11.2041
226 226 2 0 -7.16184 -10.4588 10.8137
227 227 2 0 -6.672 -9.80558 10.2364
228 228 2 0 -5.96446 -9.38751 9.66664
229 229 2 0 -5.60177 -9.6664 10.5558
230 230 2 0 -5.32929 -9.78187 11.5111
231 231 2 0 -4.32995 -9.78187 11.4748
232 232 2 0 -4.37914 -10.2367 12.364
233 233 1 0 -8 -8 0
234 234 1 0 -8 -7 0
235 235 2 0 -7.82024 -7.42072 0.889203
236 236 2 0 -8.36983 -7.10903 1.66432
237 237 2 0 -8.91941 -6.79733 2.43943
238 238 2 0 -9.82337 -6.97199 2.04912
239 239 2 0 -10.578 -7.56027 2.33965
240 240 2 0 -10.2392 -8.30312 2.917
241 241 2 0 -10.1151 -7.3685 3.25034
242 242 2 0 -9.99831 -7.38557 4.24334
243 243 2 0 -10.753 -6.80449 3.93865
244 244 2 0 -11.2967 -6.08185 4.3655
245 245 2 0 -11.2725 -6.08185 5.3652
246 246 2 0 -12.0194 -6.41171 5.94255
247 247 2 0 -11.3855 -6.69106 6.66375
248 248 2 0 -11.2949 -7.64983 6.93312
249 249 2 0 -10.5446 -7.38802 7.5402
250 250 2 0 -9.89736 -7.88572 6.96285
251 251 2 0 -9.83719 -6.98065 6.54188
252 252 2 0 -9.09029 -6.65079 5.96453
253 253 2 0 -8.19603 -6.82544 6.3766
254 254 2 0 -7.91138 -7.44942 5.64885
255 255 2 0 -8.53877 -7.7265 4.9211
256 256 2 0 -9.23069 -7.01115 5.0186
257 257 2 0 -8.89888 -6.07653 4.89057
258 258 2 0 -7.94348 -5.79247 4.80984
259 259 2 0 -7.671 -4.83594 4.91374
260 260 2 0 -7.0371 -4.11141 5.18435
261 261 2 0 -7.98535 -4.4185 5.10362
262 262 2 0 -8.52904 -3.69586 5.53046
263 263 2 0 -9.40045 -3.32799 5.20593
264 264 2 0 -8.8468 -3.73278 4.47818
265 265 1 0 -8 -6 0
266 266 1 0 -8 -5 0
267 267 1 0 -8 -4 0
268 268 1 0 -8 -3 0
269 269 1 0 -8 -2 0
270 270 1 0 -8 -1 0
271 271 2 0 -7.82024 -1.42072 0.889203
272 272 2 0 -7.82024 -1.44492 1.88891
273 273 2 0 -7.76007 -0.991378 2.77811
274 274 2 0 -7.80925 -1.44624 3.66732
275 275 2 0 -7.99914 -1.02999 4.55652
276 276 2 0 -7.8823 -1.04706 5.54952
277 277 2 0 -6.99389 -0.593519 5.47859
278 278 2 0 -6.35998 0.131009 5.74919
279 279 2 0 -6.90368 0.853646 6.17604
280 280 2 0 -6.1534 1.11546 6.78311
281 281 2 0 -6.6971 1.8381 7.20995
282 282 2 0 -6.13595 2.25617 7.92433
283 283 2 0 -6.01195 1.91155 8.85485
284 284 2 0 -6.40324 2.76932 9.18818
285 285 2 0 -6.82611 2.59467 10.0774
286 286 2 0 -6.95815 3.52929 9.74715
287 287 2 0 -7.70505 3.19943 10.3245
288 288 2 0 -7.83708 4.13404 9.99427
289 289 2 0 -7.83708 4.13404 8.99427
290 290 2 0 -7.62891 5.1088 8.91354
291 291 2 0 -7.96778 5.85165 8.33619
292 292 2 0 -7.33388 6.11347 7.60844
293 293 2 0 -7.60432 5.1547 7.69574
294 294 2 0 -7.60432 5.1547 6.69574
295 295 2 0 -8.35898 4.56642 6.98627
296 296 2 0 -8.44066 5.01996 6.09879
297 297 2 0 -7.89107 4.70826 5.32367
298 298 1 0 -8 0 0
299 299 1 0 -8 1 0
300 300 1 0 -8 2 0
301 301 1 0 -8 3 0
302 302 1 0 -8 4 0
303 303 2 0 -8.04919 3.54514 0.889203
304 304 2 0 -7.92518 4.47976 1.22254
305 305 2 0 -7.15677 4.16806 1.78146
306 306 2 0 -7.72495 3.85637 2.54305
307 307 2 0 -7.66477 2.96174 2.9858
308 308 2 0 -8.38589 3.37981 3.53825
309 309 2 0 -7.63561 3.64163 4.14533
310 310 2 0 -8.05848 3.46697 5.03453
311 311 2 0 -8.77959 3.88504 5.58699
312 312 2 0 -9.19105 3.33633 4.85924
313 313 2 0 -9.73475 2.90078 5.57666
314 314 2 0 -9.10084 2.18301 5.28861
315 315 2 0 -9.52371 2.37913 4.40389
316 316 2 0 -10.3951 2.01921 4.73722
317 317 2 0 -9.74785 1.42418 5.21365
318 318 1 0 -8 5 0
319 319 1 0 -8 6 0
320 320 1 0 -8 7 0
321 321 2 0 -7.82024 6.57928 0.889203
322 322 2 0 -8.09069 5.62051 0.976499
323 323 2 0 -8.8118 6.03858 1.52896
324 324 2 0 -8.06153 6.30039 2.13603
325 325 2 0 -7.12303 6.21038 2.46937
326 326 2 0 -7.66672 6.93302 2.89621
327 327 2 0 -7.48696 6.5123 3.78541
328 328 2 0 -8.10307 6.77412 4.52828
329 329 2 0 -8.01251 5.81535 4.79765
330 330 2 0 -8.09653 4.85658 4.52617
331 331 2 0 -9.00049 4.68193 4.13585
332 332 2 0 -8.36659 4.94374 3.4081
333 333 2 0 -8.0039 5.24406 2.52591
334 334 2 0 -8.89033 5.6976 2.61832
335 335 2 0 -8.93952 5.24274 3.50752
336 336 2 0 -9.36239 5.06808 4.39672
337 337 2 0 -9.8459 5.13826 5.26924
338 338 2 0 -10.3896 5.55633 4.54149
339 339 2 0 -10.7104 6.30716 5.11884
340 340 2 0 -11.1333 6.13251 6.00804
341 341 2 0 -12.0197 6.58605 6.10045
342 342 2 0 -11.7472 6.67837 5.14273
343 343 2 0 -12.2909 7.401 5.56957
344 344 2 0 -11.544 7.73087 4.99222
345 345 2 0 -11.0701 8.39577 5.56957
346 346 2 0 -10.3626 8.81383 4.99982
347 347 2 0 -9.72868 8.53448 5.72103
348 348 2 0 -9.1605 8.84618 4.95943
349 349 2 0 -9.24452 7.88741 4.68795
350 350 2 0 -8.53698 8.30548 4.11821
351 351 2 0 -8.41297 7.3792 3.76236
352 352 2 0 -9.18138 7.69089 3.20344
353 353 1 0 -8 8 0
354 354 2 0 -7.65615 7.64009 0.867311
355 355 2 0 -7.84603 8.05633 1.75651
356 356 2 0 -8.03592 8.47258 2.64572
357 357 1 0 -8 9 0
358 358 2 0 -7.9758 9 0.999707
359 359 1 0 -7 -10 0
360 360 1 0 -7 -9 0
361 361 2 0 -7.18988 -8.58375 0.889203
362 362 1 0 -7 -8 0
363 363 1 0 -7 -7 0
364 364 1 0 -7 -6 0
365 365 2 0 -6.87599 -6.34462 0.930517
366 366 2 0 -6.31485 -5.92655 1.6449
367 367 2 0 -6.86443 -5.61486 2.42001
368 368 2 0 -7.48054 -5.35304 3.16289
369 369 2 0 -6.9194 -4.93497 3.87727
370 370 2 0 -6.2855 -4.21044 4.14787
371 371 2 0 -5.65159 -3.48591 4.41847
372 372 2 0 -6.07446 -2.60364 4.62528
373 373 2 0 -6.94587 -2.96355 4.95862
374 374 2 0 -6.84 -2.24819 5.64931
375 375 2 0 -6.50113 -2.99105 6.22666
376 376 2 0 -6.44095 -2.53751 7.11586
377 377 2 0 -5.48555 -2.25345 7.03514
378 378 2 0 -5.36154 -2.59807 7.96565
379 379 2 0 -6.10844 -2.92793 8.543
380 380 2 0 -5.82379 -3.55191 7.81525
381 381 2 0 -5.50299 -4.30275 7.2379
382 382 2 0 -4.86908 -3.57822 7.50851
383 383 1 0 -7 -5 0
384 384 2 0 -6.93982 -4.54646 0.889203
385 385 2 0 -7.93975 -4.54646 0.901301
386 386 2 0 -7.48433 -4.59014 1.7905
387 387 2 0 -8.35573 -4.95005 2.12384
388 388 2 0 -8.29556 -4.49652 3.01304
389 389 2 0 -9.05022 -5.0848 3.30358
390 390 2 0 -8.99004 -5.97942 3.74632
391 391 2 0 -9.31084 -5.22859 4.32368
392 392 2 0 -8.55618 -4.64031 4.03314
393 393 2 0 -9.31084 -4.952 3.45579
394 394 2 0 -10.0655 -4.37092 3.1511
395 395 2 0 -9.3186 -4.04106 2.57375
396 396 2 0 -9.65748 -3.29821 1.9964
397 397 2 0 -10.1117 -3.24352 2.8856
398 398 2 0 -9.76786 -3.60343 3.75291
399 399 1 0 -7 -4 0
400 400 1 0 -7 -3 0
401 401 1 0 -7 -2 0
402 402 2 0 -6.58148 -1.81517 0.889203
403 403 1 0 -7 -1 0
404 404 1 0 -7 0 0
405 405 2 0 -6.87599 -0.344617 0.930517
406 406 2 0 -7.52326 0.153092 1.50787
407 407 2 0 -7.06783 0.109412 2.39707
408 408 1 0 -7 1 0
409 409 2 0 -6.87599 0.655383 0.930517
410 410 2 0 -6.24209 0.376033 1.65172
411 411 2 0 -6.34345 -0.561311 1.98505
412 412 2 0 -5.86956 0.103589 2.5624
413 413 2 0 -6.26085 0.961362 2.89573
414 414 2 0 -6.71509 1.01605 3.78494
415 415 2 0 -6.76427 0.561186 4.67414
416 416 2 0 -7.03472 -0.397584 4.76144
417 417 2 0 -6.40082 -0.135765 4.03369
418 418 2 0 -7.13618 0.126053 3.40864
419 419 2 0 -7.75229 0.387871 4.15151
420 420 2 0 -7.75229 0.363675 5.15122
421 421 2 0 -8.04788 1.31557 5.07049
422 422 2 0 -7.47971 1.62727 4.3089
423 423 2 0 -6.61726 2.00816 4.64223
424 424 2 0 -6.72466 1.19876 5.21958
425 425 2 0 -6.39285 2.13337 5.09155
426 426 2 0 -6.26884 1.78876 6.02207
427 427 2 0 -5.4064 2.16965 6.3554
428 428 2 0 -5.7272 2.92048 6.93275
429 429 2 0 -6.59861 3.24054 7.30452
430 430 1 0 -7 2 0
431 431 2 0 -7.42286 1.82535 0.889203
432 432 2 0 -7.47205 1.37048 1.77841
433 433 1 0 -7 3 0
434 434 2 0 -6.72752 2.88453 0.955209
435 435 2 0 -7.34363 3.14635 1.69808
436 436 1 0 -7 4 0
437 437 1 0 -7 5 0
438 438 1 0 -7 6 0
439 439 1 0 -7 7 0
440 440 1 0 -7 8 0
441 441 1 0 -7 9 0
442 442 2 0 -6.72752 8.88453 0.955209
443 443 2 0 -7.27122 9.60717 1.38205
444 444 2 0 -6.78589 10.4788 1.45105
445 445 2 0 -7.73414 10.1717 1.37033
446 446 2 0 -7.67396 10.6252 2.25953
447 447 2 0 -7.72315 10.1704 3.14873
448 448 2 0 -8.59456 10.4904 3.52051
449 449 2 0 -9.13825 11.2131 3.94735
450 450 2 0 -9.89291 10.6248 4.23788
451 451 2 0 -9.77607 10.6077 5.23089
452 452 2 0 -9.68551 9.64894 5.50026
453 453 2 0 -10.4066 10.067 6.05271
454 454 2 0 -9.65635 10.3288 6.65979
455 455 2 0 -9.31748 9.58597 7.23714
456 456 2 0 -9.03283 8.96198 6.50939
457 457 2 0 -8.47918 8.55719 5.78164
458 458 2 0 -7.92959 8.2455 5.00653
459 459 2 0 -7.36142 8.55719 4.24494
460 460 2 0 -7.90511 8.97526 3.51719
461 461 1 0 -6 -10 0
462 462 1 0 -6 -9 0
463 463 2 0 -5.93982 -8.54646 0.889203
464 464 2 0 -6.48941 -8.23477 1.66432
465 465 2 0 -7.03899 -7.92307 2.43943
466 466 1 0 -6 -8 0
467 467 1 0 -6 -7 0
468 468 2 0 -5.87599 -7.34462 0.930517
469 469 1 0 -6 -6 0
470 470 1 0 -6 -5 0
471 471 2 0 -6 -5.0242 0.999707
472 472 2 0 -6 -4.02427 1.01181
473 473 2 0 -6.45423 -3.96958 1.90101
474 474 2 0 -7.02241 -4.28128 2.6626
475 475 2 0 -7.41371 -3.42351 2.99593
476 476 2 0 -7.14123 -2.46697 3.09983
477 477 2 0 -7.88813 -2.79683 3.67718
478 478 2 0 -8.311 -2.60071 2.79247
479 479 2 0 -8.92711 -2.3389 3.53534
480 480 2 0 -9.19657 -1.70821 2.80759
481 481 2 0 -9.65081 -1.65352 3.6968
482 482 2 0 -9.62661 -1.65352 4.6965
483 483 2 0 -9.71682 -0.991443 5.44049
484 484 2 0 -9.65664 -1.88607 5.88324
485 485 2 0 -10.6049 -2.19316 5.80251
486 486 2 0 -11.3733 -1.88146 5.24359
487 487 2 0 -11.917 -2.59356 4.79939
488 488 2 0 -12.3712 -2.53888 5.68859
489 489 2 0 -11.477 -2.71353 6.10066
490 490 2 0 -11.5783 -3.65088 6.434
491 491 2 0 -11.5182 -3.19734 7.3232
492 492 2 0 -11.8138 -2.24544 7.24247
493 493 2 0 -12.5822 -1.93375 6.68355
494 494 1 0 -6 -4 0
495 495 1 0 -6 -3 0
496 496 2 0 -6 -3.0242 0.999707
497 497 2 0 -6.99993 -3.0242 1.01181
498 498 2 0 -7.54951 -2.7125 1.78692
499 499 2 0 -6.65526 -2.88716 2.199
500 500 2 0 -5.76685 -2.43362 2.12807
501 501 2 0 -6.18971 -1.55134 2.33487
502 502 2 0 -6.2389 -2.0062 3.22408
503 503 2 0 -6.42878 -1.58995 4.11328
504 504 2 0 -6.01027 -1.40512 5.00248
505 505 2 0 -5.25561 -1.09342 5.57983
506 506 2 0 -4.9238 -0.158805 5.4518
507 507 1 0 -6 -2 0
508 508 1 0 -6 -1 0
509 509 2 0 -5.9758 -1 0.999707
510 510 2 0 -5.3419 -0.275472 1.27031
511 511 2 0 -4.78076 0.142595 1.98469
512 512 2 0 -4.21962 0.560662 2.69907
513 513 2 0 -4.61092 1.41843 3.03241
514 514 2 0 -5.33203 1.8365 3.58486
515 515 2 0 -5.65284 2.58734 4.16221
516 516 2 0 -4.90256 2.84915 4.76929
517 517 2 0 -5.32543 3.73143 4.9761
518 518 2 0 -5.87501 4.04313 5.75121
519 519 2 0 -5.24111 4.76766 6.02182
520 520 2 0 -4.96863 4.65219 6.97703
521 521 2 0 -4.38349 5.1499 7.61726
522 522 2 0 -4.32332 5.60344 8.50646
523 523 2 0 -5.07021 5.27357 9.08381
524 524 2 0 -5.1194 4.81871 9.97301
525 525 2 0 -4.60452 3.96417 10.0413
526 526 2 0 -4.96926 3.60426 9.18257
527 527 2 0 -4.90908 2.70963 9.62531
528 528 2 0 -4.01483 2.53498 10.0374
529 529 2 0 -3.5594 2.4913 10.9266
530 530 2 0 -3.5594 3.49123 10.9387
531 531 2 0 -3.43539 3.14661 11.8692
532 532 2 0 -3.98498 3.4583 12.6443
533 533 2 0 -4.40784 2.57128 12.4589
534 534 2 0 -5.1625 1.983 12.7495
535 535 2 0 -5.13831 1.983 13.7492
536 536 2 0 -5.70649 1.6713 14.5108
537 537 2 0 -5.81388 0.861901 15.0881
538 538 2 0 -5.05922 0.564267 14.5034
539 539 2 0 -4.6407 0.749102 15.3926
540 540 2 0 -4.36823 0.633635 16.3478
541 541 2 0 -4.55811 1.04988 17.237
542 542 2 0 -4.82856 0.0911135 17.3243
543 543 2 0 -5.56392 0.352932 16.6992
544 544 2 0 -5.01027 -0.0518577 15.9715
545 545 2 0 -5.95852 -0.358948 15.8908
546 546 2 0 -6.84496 0.0945904 15.9832
547 547 2 0 -6.78478 -0.337301 15.0833
548 548 2 0 -7.53944 0.243779 14.7786
549 549 2 0 -7.9623 0.439896 13.8939
550 550 2 0 -8.28311 1.19073 14.4712
551 551 2 0 -9.15451 0.861777 14.1073
552 552 2 0 -9.22354 1.10519 15.0747
553 553 2 0 -8.89173 2.03981 14.9467
554 554 2 0 -9.34597 2.09449 15.8359
555 555 2 0 -9.96207 2.35631 16.5788
556 556 2 0 -10.3849 2.18166 17.468
557 557 2 0 -10.2609 1.25538 17.1121
558 558 2 0 -11.2092 0.948288 17.0314
559 559 2 0 -12.1452 1.06098 17.3648
560 560 2 0 -13.1452 1.06098 17.3769
561 561 2 0 -13.568 1.2571 16.4921
562 562 2 0 -14.1117 0.821545 17.2096
563 563 2 0 -13.4778 0.103777 16.9215
564 564 1 0 -6 0 0
565 565 1 0 -6 1 0
566 566 2 0 -5.93982 1.45354 0.889203
567 567 2 0 -5.81581 2.38816 1.22254
568 568 1 0 -6 2 0
569 569 1 0 -6 3 0
570 570 1 0 -6 4 0
571 571 1 0 -6 5 0
572 572 1 0 -6 6 0
573 573 2 0 -5.72752 5.88453 0.955209
574 574 2 0 -6.67577 5.57744 0.874482
575 575 2 0 -6.33192 5.21753 1.74179
576 576 2 0 -6.9001 4.90583 2.50338
577 577 2 0 -6.48158 5.09067 3.39259
578 578 1 0 -6 7 0
579 579 2 0 -5.72752 6.88453 0.955209
580 580 1 0 -6 8 0
581 581 2 0 -6.42286 7.82535 0.889203
582 582 2 0 -5.56042 8.20624 1.22254
583 583 2 0 -5.53623 8.20624 2.22224
584 584 2 0 -5.83182 9.15813 2.14152
585 585 2 0 -6.70323 8.79822 2.47485
586 586 2 0 -6.97367 7.83945 2.56215
587 587 2 0 -6.94948 7.83945 3.56185
588 588 2 0 -6.99866 7.38459 4.45106
589 589 2 0 -7.08887 6.63265 5.10408
590 590 2 0 -7.97531 7.08619 5.19649
591 591 2 0 -7.79555 6.66547 6.08569
592 592 2 0 -7.23441 7.08353 6.80007
593 593 2 0 -6.9026 8.01815 6.67204
594 594 2 0 -7.65726 8.31578 7.25676
595 595 2 0 -7.20184 8.2721 8.14597
596 596 2 0 -7.59313 9.12988 8.4793
597 597 2 0 -7.98443 9.98765 8.81263
598 598 2 0 -8.73133 9.65779 9.38998
599 599 2 0 -8.82473 10.4672 9.96976
600 600 2 0 -8.3693 10.4235 10.859
601 601 2 0 -9.10467 10.6853 10.2339
602 602 2 0 -9.97608 11.0532 9.90939
603 603 2 0 -9.85207 10.1269 9.55354
604 604 2 0 -9.90125 9.67206 10.4427
605 605 2 0 -9.5574 9.31215 11.3101
606 606 2 0 -10.1011 10.0348 11.7369
607 607 2 0 -10.524 10.9171 11.9437
608 608 2 0 -9.77368 11.1789 12.5508
609 609 2 0 -9.44188 12.1135 12.4227
610 610 2 0 -9.52355 12.567 11.5353
611 611 1 0 -6 9 0
612 612 1 0 -5 -10 0
613 613 2 0 -5.42286 -10.1747 0.889203
614 614 2 0 -5.49774 -9.30305 1.37366
615 615 2 0 -4.93212 -8.54875 1.70699
616 616 2 0 -4.87194 -9.44338 2.14974
617 617 2 0 -4.10353 -9.75507 2.70866
618 618 2 0 -4.64722 -10.1906 3.42608
619 619 2 0 -4.30835 -10.9335 4.00343
620 620 2 0 -5.21231 -11.1081 3.61311
621 621 2 0 -5.63517 -10.2259 3.81992
622 622 2 0 -6.17887 -10.938 3.37572
623 623 2 0 -6.93353 -10.3569 3.07103
624 624 2 0 -6.37239 -9.9388 3.78541
625 625 2 0 -6.91608 -10.3744 4.50284
626 626 2 0 -6.16581 -10.1125 5.10991
627 627 2 0 -7.11406 -10.4196 5.02918
628 628 2 0 -6.84158 -10.5351 5.98439
629 629 2 0 -6.84158 -9.53517 5.99649
630 630 2 0 -7.71299 -9.89508 6.32983
631 631 2 0 -8.13585 -9.69897 5.44511
632 632 2 0 -8.13585 -9.69897 4.44511
633 633 2 0 -8.52715 -8.84119 4.77844
634 634 2 0 -7.77975 -8.52893 5.36486
635 635 2 0 -8.34793 -8.84063 6.12645
636 636 2 0 -8.22392 -9.18525 7.05697
637 637 2 0 -8.84003 -8.92343 7.79984
638 638 2 0 -8.74947 -9.8822 8.06921
639 639 2 0 -8.65891 -10.841 8.33858
640 640 1 0 -5 -9 0
641 641 1 0 -5 -8 0
642 642 1 0 -5 -7 0
643 643 2 0 -4.58148 -6.81517 0.889203
644 644 2 0 -5.45289 -6.49511 1.26098
645 645 2 0 -5.4287 -6.49511 2.26068
646 646 2 0 -5.69914 -7.45388 2.34798
647 647 2 0 -5.63896 -8.34851 2.79073
648 648 2 0 -6.18266 -7.62587 3.21757
649 649 2 0 -6.79876 -7.36405 3.96044
650 650 2 0 -7.22163 -6.48177 4.16725
651 651 2 0 -7.09762 -6.82639 5.09776
652 652 2 0 -6.82514 -5.86985 5.20167
653 653 2 0 -6.36972 -5.91353 6.09087
654 654 2 0 -6.09724 -6.8723 6.01014
655 655 1 0 -5 -6 0
656 656 1 0 -5 -5 0
657 657 1 0 -5 -4 0
658 658 2 0 -5.04919 -4.45486 0.889203
659 659 1 0 -5 -3 0
660 660 1 0 -5 -2 0
661 661 2 0 -5.42286 -2.17465 0.889203
662 662 1 0 -5 -1 0
663 663 1 0 -5 0 0
664 664 1 0 -5 1 0
665 665 2 0 -4.9758 1 0.999707
666 666 2 0 -4.70333 1.95654 1.10361
667 667 2 0 -5.15756 2.01122 1.99281
668 668 2 0 -5.58043 1.1242 1.80741
669 669 2 0 -6.46686 1.57774 1.89982
670 670 1 0 -5 2 0
671 671 1 0 -5 3 0
672 672 1 0 -5 4 0
673 673 2 0 -5.04919 3.54514 0.889203
674 674 2 0 -5.80385 3.84277 1.47393
675 675 1 0 -5 5 0
676 676 2 0 -5.04919 4.54514 0.889203
677 677 1 0 -5 6 0
678 678 1 0 -5 7 0
679 679 1 0 -5 8 0
680 680 1 0 -5 9 0
681 681 1 0 -4 -10 0
682 682 2 0 -3.65615 -10.3599 0.867311
683 683 2 0 -4.16922 -9.50758 0.96869
684 684 1 0 -4 -9 0
685 685 1 0 -4 -8 0
686 686 2 0 -4.45423 -7.94531 0.889203
687 687 2 0 -3.68582 -8.25701 1.44812
688 688 2 0 -2.93116 -7.94531 2.02547
689 689 2 0 -2.87099 -7.49178 2.91468
690 690 2 0 -3.87091 -7.49178 2.92678
691 691 2 0 -3.53204 -8.23463 3.50413
692 692 2 0 -4.436 -8.40928 3.11381
693 693 2 0 -4.85886 -7.527 3.32062
694 694 2 0 -5.18748 -6.59239 3.45664
695 695 2 0 -5.73117 -5.86975 3.88348
696 696 2 0 -6.48583 -6.18144 3.30613
697 697 2 0 -7.02952 -6.89354 2.86193
698 698 2 0 -6.75705 -6.80122 1.90421
699 699 1 0 -4 -7 0
700 700 1 0 -4 -6 0
701 701 1 0 -4 -5 0
702 702 2 0 -4.42286 -5.17465 0.889203
703 703 2 0 -4.8771 -5.11997 1.77841
704 704 2 0 -5.42668 -4.80827 2.55352
705 705 2 0 -4.67202 -4.49658 3.13087
706 706 2 0 -4.61184 -4.04304 4.02007
707 707 2 0 -4.61184 -4.06724 5.01978
708 708 2 0 -4.48783 -4.41185 5.9503
709 709 2 0 -5.03153 -3.68922 6.37714
710 710 2 0 -5.93549 -3.86387 5.98682
711 711 2 0 -6.69015 -4.45215 6.27736
712 712 2 0 -7.56156 -4.1321 6.64913
713 713 2 0 -7.10613 -4.17578 7.53833
714 714 2 0 -7.20749 -5.11312 7.87167
715 715 2 0 -7.8236 -4.8513 8.61454
716 716 2 0 -8.57826 -4.27022 8.30985
717 717 2 0 -9.34667 -3.95853 7.75093
718 718 2 0 -8.79709 -4.27022 6.97582
719 719 2 0 -9.06753 -5.22899 7.06311
720 720 2 0 -8.79506 -5.13667 6.10539
721 721 2 0 -9.69902 -5.31133 5.71507
722 722 2 0 -9.80641 -4.48819 5.15748
723 723 2 0 -10.2606 -4.43351 6.04668
724 724 2 0 -9.62674 -3.70898 6.31728
725 725 1 0 -4 -4 0
726 726 2 0 -4.18988 -3.58375 0.889203
727 727 2 0 -3.43522 -4.16483 1.19389
728 728 2 0 -3.97892 -4.60038 1.91131
729 729 2 0 -3.63506 -4.9603 2.77862
730 730 2 0 -3.57489 -5.85492 3.22137
731 731 2 0 -4.14306 -6.16662 3.98296
732 732 2 0 -3.77263 -7.03361 4.31629
733 733 2 0 -4.70868 -6.92091 4.64962
734 734 2 0 -5.58009 -7.24987 4.2857
735 735 2 0 -6.09317 -7.36155 5.13675
736 736 2 0 -5.32476 -7.67325 5.69567
737 737 2 0 -5.26458 -6.76817 5.2747
738 738 2 0 -4.61731 -7.3632 5.75113
739 739 2 0 -4.74935 -6.42858 5.4209
740 740 2 0 -4.11545 -5.70406 5.6915
741 741 2 0 -4.16463 -6.15892 6.5807
742 742 2 0 -3.82078 -6.51883 7.44801
743 743 2 0 -3.9048 -7.4776 7.17653
744 744 2 0 -3.72504 -7.89832 8.06574
745 745 2 0 -3.60103 -8.24294 8.99625
746 746 2 0 -3.04738 -8.64773 8.2685
747 747 2 0 -3.04738 -9.64707 8.23221
748 748 2 0 -3.91879 -9.32702 8.60399
749 749 2 0 -4.67345 -8.74594 8.2993
750 750 2 0 -4.86334 -8.32969 9.1885
751 751 2 0 -5.47945 -8.06787 9.93138
752 752 2 0 -6.3549 -8.34676 10.3261
753 753 2 0 -5.58649 -8.65845 10.885
754 754 2 0 -4.89241 -8.71317 10.1672
755 755 2 0 -5.31528 -7.83089 10.374
756 756 2 0 -4.50463 -7.92848 10.9514
757 757 2 0 -3.75436 -7.66666 11.5584
758 758 2 0 -2.86595 -7.21312 11.4875
759 759 2 0 -2.23205 -7.49247 12.2087
760 760 2 0 -2.84816 -7.23066 12.9516
761 761 2 0 -3.17677 -6.29604 13.0876
762 762 2 0 -2.42211 -5.98434 13.665
763 763 2 0 -2.36193 -5.5308 14.5542
764 764 2 0 -2.25454 -4.96329 15.3705
765 765 2 0 -1.49988 -4.37501 15.0799
766 766 2 0 -1.83875 -3.63216 14.5026
767 767 2 0 -1.56627 -2.67562 14.6065
768 768 2 0 -1.56627 -1.67569 14.6186
769 769 2 0 -1.65648 -2.42763 15.2716
770 770 2 0 -1.38401 -2.5431 16.2268
771 771 2 0 -0.629347 -1.95482 15.9363
772 772 2 0 -0.228121 -2.12947 15.0371
773 773 2 0 0.0443564 -2.03715 14.0794
774 774 2 0 -0.859606 -2.21181 13.6891
775 775 2 0 -0.859606 -2.21181 12.6891
776 776 2 0 -0.152067 -1.79374 12.1193
777 777 2 0 0.397517 -2.10544 11.3442
778 778 1 0 -4 -3 0
779 779 1 0 -4 -2 0
780 780 1 0 -4 -1 0
781 781 2 0 -4.42286 -1.17465 0.889203
782 782 2 0 -4.84573 -1.34931 1.77841
783 783 2 0 -4.39031 -1.39299 2.66761
784 784 2 0 -5.27674 -0.939449 2.76001
785 785 2 0 -5.27674 -0.963645 3.75972
786 786 2 0 -4.52208 -0.375363 3.46918
787 787 2 0 -4.4619 0.0781751 4.35839
788 788 2 0 -4.79051 1.01279 4.49441
789 789 2 0 -5.66192 1.33285 4.86618
790 790 2 0 -4.89351 1.02115 5.42511
791 791 2 0 -4.71375 0.600431 6.31431
792 792 2 0 -4.34332 -0.266558 6.64764
793 793 2 0 -3.78968 -0.671348 5.91989
794 794 2 0 -3.15577 -0.40953 5.19214
795 795 2 0 -2.78534 -1.27652 5.52548
796 796 2 0 -2.03068 -0.688238 5.23494
797 797 2 0 -1.16759 -1.04815 4.88062
798 798 2 0 -0.804907 -1.32704 5.76982
799 799 2 0 -0.406845 -0.76853 5.04207
800 800 2 0 -0.727647 -0.0176955 5.61942
801 801 2 0 -1.59905 0.350178 5.2949
802 802 2 0 -1.91986 1.10101 5.87225
803 803 2 0 -2.25873 1.84387 5.2949
804 804 2 0 -1.39564 1.48395 4.94058
805 805 2 0 -0.834503 1.90202 5.65496
806 806 2 0 0.0597507 1.72736 6.06703
807 807 2 0 -0.661367 2.14543 6.61949
808 808 2 0 -1.38248 2.5635 7.17195
809 809 2 0 -0.52004 2.94439 7.50528
810 810 2 0 -0.459863 3.84947 7.08431
811 811 2 0 -0.459863 3.84947 6.08431
812 812 1 0 -4 0 0
813 813 2 0 -4.45423 0.0546859 0.889203
814 814 1 0 -4 1 0
815 815 1 0 -4 2 0
816 816 1 0 -4 3 0
817 817 1 0 -4 4 0
818 818 2 0 -3.87599 3.65538 0.930517
819 819 1 0 -4 5 0
820 820 2 0 -3.54458 4.95632 0.889203
821 821 2 0 -4.35734 5.03427 1.46655
822 822 2 0 -5.112 5.33191 2.05128
823 823 2 0 -5.02144 4.37314 2.32064
824 824 2 0 -4.65101 3.50615 2.65398
825 825 2 0 -3.7626 3.95969 2.58305
826 826 2 0 -3.34409 4.14452 3.47225
827 827 2 0 -2.40559 4.05451 3.80558
828 828 2 0 -1.77168 4.77904 4.07619
829 829 2 0 -1.27943 5.64574 3.99546
830 830 2 0 -1.84761 5.33405 4.75705
831 831 2 0 -2.0375 5.75029 5.64625
832 832 2 0 -2.9089 6.11817 5.32173
833 833 2 0 -2.34073 6.42986 4.56013
834 834 2 0 -2.73202 7.28763 4.89347
835 835 2 0 -2.45755 7.65367 5.78267
836 836 2 0 -2.36699 6.6949 6.05204
837 837 2 0 -3.23839 7.01495 6.42381
838 838 2 0 -3.17822 7.46849 7.31301
839 839 2 0 -3.11804 8.37357 6.89204
840 840 2 0 -3.98945 8.69362 7.26382
841 841 2 0 -3.98945 8.69362 6.26382
842 842 1 0 -4 6 0
843 843 2 0 -3.54458 5.95632 0.889203
844 844 1 0 -4 7 0
845 845 2 0 -4.45423 7.05469 0.889203
846 846 2 0 -5.02241 6.74299 1.65079
847 847 2 0 -5.95846 6.85568 1.98413
848 848 2 0 -5.93427 6.85568 2.98383
849 849 2 0 -5.66179 5.89691 2.90311
850 850 2 0 -4.91151 6.15873 3.51018
851 851 2 0 -4.99553 5.19996 3.2387
852 852 2 0 -5.86694 4.84005 3.57204
853 853 2 0 -5.77638 3.88128 3.8414
854 854 2 0 -6.64779 3.55232 3.47748
855 855 2 0 -6.64779 3.55232 2.47748
856 856 2 0 -6.58761 2.6577 2.92023
857 857 2 0 -5.63221 2.94176 2.8395
858 858 1 0 -4 8 0
859 859 2 0 -3.54458 7.95632 0.889203
860 860 2 0 -3.96744 7.78167 1.77841
861 861 2 0 -3.33354 8.50619 2.04901
862 862 2 0 -4.21997 8.95973 2.14142
863 863 2 0 -3.4697 9.22155 2.74849
864 864 2 0 -2.88883 10.031 2.83486
865 865 2 0 -3.07872 10.4472 3.72407
866 866 2 0 -3.34916 9.48843 3.81136
867 867 2 0 -2.5945 8.90735 4.11605
868 868 2 0 -2.5703 8.90735 5.11576