ITEM: TIMESTEP
0
ITEM: NUMBER OF ATOMS
2400
ITEM: BOX BOUNDS pp pp pp
-10 10
-10 10
0 10000
ITEM: ATOMS id type xs ys zs
1 1 0 0 0
2 1 0.0209258 0.00924172 8.89203e-05
3 1 0 0.05 0
4 1 0 0.1 0
5 1 0 0.15 0
6 1 0.0209258 0.159242 8.89203e-05
7 1 0.0158578 0.112374 0.000122254
8 1 0.0220583 0.0660605 8.66687e-05
9 1 0 0.2 0
10 1 0.0209258 0.209242 8.89203e-05
11 1 0.0418515 0.218483 0.000177841
12 1 0.998281 0.234486 0.000215018
13 1 0.969351 0.274956 0.000204978
14 1 0 0.25 0
15 1 0 0.3 0
16 1 0.0171926 0.282004 8.67311e-05
17 1 0.0549256 0.297589 0.000144466
18 1 0.0748287 0.325514 7.16912e-05
19 1 0 0.35 0
20 1 0.0171926 0.332004 8.67311e-05
21 1 0 0.4 0
22 1 0.0136239 0.394227 9.55209e-05
23 1 0.0520443 0.378642 0.000151413
24 1 0.0309011 0.422756 0.000172094
25 1 0.993168 0.393342 0.000201148
26 1 0.943172 0.393342 0.000202357
27 1 0 0.45 0
28 1 0 0.5 0
29 1 0.00620046 0.482769 9.30517e-05
30 1 0.985057 0.474036 0.000181972
31 1 0.957873 0.510168 0.000224656
32 1 0.952805 0.463301 0.000257989
33 1 0.91546 0.446808 0.000315724
34 1 0.919988 0.398869 0.000342661
35 1 0.966913 0.394369 0.000375995
36 1 0.966913 0.444365 0.000377204
37 1 0.944201 0.4471 0.000466125
38 1 0.899003 0.438367 0.000427093
39 1 0.86127 0.467421 0.000396624
40 1 0.830465 0.480512 0.000470912
41 1 0.848599 0.466567 0.000559832
42 1 0.87688 0.504282 0.000593165
43 1 0.904937 0.525186 0.000664603
44 1 0.918561 0.477247 0.000656531
45 1 0.924761 0.495599 0.00056434
46 1 0.930962 0.51395 0.000472149
47 1 0.944586 0.561777 0.00048254
48 1 0.953574 0.540741 0.00057146
49 1 0.969614 0.503199 0.000513725
50 1 0.00734671 0.532613 0.000484671
51 1 0.00326297 0.55529 0.000395922
52 1 0.98212 0.510939 0.000377382
53 1 0.0290449 0.506438 0.000410716
54 1 0.0255935 0.518609 0.000507462
55 1 0.064014 0.503024 0.000563354
56 1 0.0428708 0.494292 0.000652275
57 1 0.0665653 0.527537 0.00071001
58 1 0.0357599 0.540628 0.000784297
59 1 0.0542814 0.497278 0.00081763
60 1 0.0268022 0.512863 0.000895142
61 1 0.0357901 0.491827 0.000984062
62 1 0.0312796 0.524931 0.00105846
63 1 0.0790497 0.539134 0.00105039
64 1 0 0.55 0
65 1 0 0.6 0
66 1 0 0.65 0
67 1 0.00620046 0.632769 9.30517e-05
68 1 0.98977 0.6795 0.000106654
69 1 0.97499 0.727095 9.85814e-05
70 1 0.0181122 0.74614 0.000131915
71 1 0.0156529 0.723396 0.000220835
72 1 0.0186618 0.678665 0.00026511
73 1 0.973464 0.669932 0.000226078
74 1 0 0.7 0
75 1 0 0.75 0
76 1 0.00120978 0.75 9.99707e-05
77 1 0 0.8 0
78 1 0.00120978 0.8 9.99707e-05
79 1 0.0101977 0.778964 0.000188891
80 1 0 0.85 0
81 1 0.0209258 0.859242 8.89203e-05
82 1 0 0.9 0
83 1 0 0.95 0
84 1 0.00898787 0.928964 8.89203e-05
85 1 0.00652856 0.906221 0.000177841
86 1 0.997034 0.927033 0.000266761
87 1 0.0179601 0.936275 0.000355681
88 1 0.0556931 0.965689 0.000326627
89 1 0.0873883 0.97878 0.000253852
90 1 0.055025 0.00853154 0.00020621
91 1 0.05 0 0
92 1 0.0589879 0.978964 8.89203e-05
93 1 0.0565286 0.956221 0.000177841
94 1 0.0204727 0.977124 0.000233086
95 1 0.0258424 0.00549998 0.000314719
96 1 0.00889868 0.0426426 0.000256984
97 1 0.97213 0.0557335 0.000194479
98 1 0.92856 0.0717362 0.000231656
99 1 0.901375 0.107868 0.00027434
100 1 0.857805 0.123871 0.000311518
101 1 0.836662 0.167985 0.000332198
102 1 0.879784 0.187029 0.000365532
103 1 0.898306 0.14368 0.000398865
104 1 0.936039 0.114626 0.000429334
105 1 0.933579 0.0918828 0.000518254
106 1 0.912436 0.0831501 0.000607174
107 1 0.875091 0.0666569 0.000664909
108 1 0.844286 0.0797478 0.000739197
109 1 0.817101 0.0579702 0.000810939
110 1 0.795958 0.102084 0.000831619
111 1 0.768773 0.138216 0.000874304
112 1 0.782397 0.132443 0.000969824
113 1 0.750034 0.157328 0.00102756
114 1 0.756234 0.140097 0.00112061
115 1 0.735091 0.131365 0.00120953
116 1 0.719051 0.168906 0.00126727
117 1 0.05 0.05 0
118 1 0.05 0.1 0
119 1 0.05 0.15 0
120 1 0.05 0.2 0
121 1 0.0709258 0.209242 8.89203e-05
122 1 0.109346 0.193657 0.000144812
123 1 0.05 0.25 0
124 1 0.05 0.3 0
125 1 0.05 0.35 0
126 1 0.05 0.4 0
127 1 0.05 0.45 0
128 1 0.05 0.5 0
129 1 0.0405058 0.520812 8.89203e-05
130 1 0.0722009 0.506845 0.00016104
131 1 0.0361451 0.527748 0.000216286
132 1 0.0642022 0.548652 0.000287724
133 1 0.111972 0.562854 0.000279652
134 1 0.0892606 0.565589 0.000368572
135 1 0.0696957 0.608477 0.000401905
136 1 0.0906214 0.617719 0.000490825
137 1 0.127991 0.633332 0.000549468
138 1 0.165505 0.646423 0.000610175
139 1 0.121935 0.662426 0.000647352
140 1 0.11244 0.683238 0.000736273
141 1 0.150173 0.712652 0.000707219
142 1 0.150173 0.712652 0.000607219
143 1 0.178454 0.750367 0.000640552
144 1 0.221577 0.769411 0.000673886
145 1 0.222786 0.769411 0.000773856
146 1 0.195602 0.805543 0.00081654
147 1 0.232947 0.822036 0.000758805
148 1 0.239147 0.868767 0.000792139
149 1 0.267204 0.889671 0.000863577
150 1 0.25026 0.926813 0.000805842
151 1 0.232024 0.908818 0.000719968
152 1 0.245648 0.913434 0.000624196
153 1 0.202077 0.931827 0.000591743
154 1 0.18384 0.913832 0.000505869
155 1 0.215535 0.877943 0.000477064
156 1 0.216745 0.877943 0.000577035
157 1 0.255166 0.862359 0.000632927
158 1 0.05 0.55 0
159 1 0.0530089 0.572677 8.89203e-05
160 1 0.0542187 0.572677 0.000188891
161 1 0.05 0.6 0
162 1 0.05 0.65 0
163 1 0.0405058 0.670812 8.89203e-05
164 1 0.0494936 0.649776 0.000177841
165 1 0.0872267 0.620722 0.000208309
166 1 0.0588178 0.605138 0.000284468
167 1 0.0152474 0.587142 0.000317802
168 1 0.970049 0.578409 0.00027877
169 1 0.926479 0.594412 0.000315947
170 1 0.946382 0.622337 0.000243172
171 1 0.983896 0.635428 0.00030388
172 1 0.961184 0.638162 0.0003928
173 1 0.917614 0.620167 0.000426133
174 1 0.923814 0.602936 0.000519185
175 1 0.880244 0.58494 0.000552518
176 1 0.832831 0.569586 0.000544446
177 1 0.847064 0.538386 0.000471671
178 1 0.884797 0.567801 0.000442617
179 1 0.890997 0.521487 0.000407032
180 1 0.890997 0.521487 0.000307032
181 1 0.05 0.7 0
182 1 0.05 0.75 0
183 1 0.0512098 0.75 9.99707e-05
184 1 0.05 0.8 0
185 1 0.05 0.85 0
186 1 0.05 0.9 0
187 1 0.0636239 0.894227 9.55209e-05
188 1 0.05 0.95 0
189 1 0.1 0 0
190 1 0.1 0.05 0
191 1 0.0905058 0.0708124 8.89203e-05
192 1 0.0917156 0.0708124 0.000188891
193 1 0.0609101 0.0839033 0.000263178
194 1 0.0836813 0.0817194 0.000352099
195 1 0.130606 0.0772188 0.000385432
196 1 0.168339 0.0623371 0.00032696
197 1 0.200035 0.0264487 0.000298154
198 1 0.237548 0.0395396 0.000358862
199 1 0.214837 0.0422739 0.000447782
200 1 0.209467 0.0696538 0.000530764
201 1 0.165896 0.0856564 0.000567941
202 1 0.183089 0.0676607 0.000654673
203 1 0.161946 0.111775 0.000675353
204 1 0.145515 0.158506 0.000688956
205 1 0.109459 0.179409 0.000744201
206 1 0.112468 0.134678 0.000788476
207 1 0.0747351 0.105264 0.00081753
208 1 0.0759449 0.105264 0.000917501
209 1 0.0611651 0.152858 0.000909428
210 1 0.0234321 0.181912 0.000878959
211 1 0.00228884 0.17318 0.00096788
212 1 0.0112767 0.152144 0.0010568
213 1 0.0544311 0.134148 0.00102137
214 1 0.0589592 0.0862095 0.0010483
215 1 0.105884 0.0817089 0.00108164
216 1 0.107094 0.0817089 0.00118161
217 1 0.0762886 0.0947998 0.0012559
218 1 0.0990598 0.0926159 0.00134482
219 1 0.116004 0.0554732 0.00140255
220 1 0.153737 0.0405915 0.00134408
221 1 0.153737 0.0405915 0.00124408
222 1 0.172258 0.997242 0.00127741
223 1 0.185882 0.949304 0.00126934
224 1 0.158697 0.970207 0.00119656
225 1 0.187106 0.985792 0.00112041
226 1 0.141908 0.977059 0.00108137
227 1 0.1664 0.00972096 0.00102364
228 1 0.201777 0.0306243 0.000966664
229 1 0.219911 0.0166801 0.00105558
230 1 0.233535 0.0109067 0.00115111
231 1 0.283502 0.0109067 0.00114748
232 1 0.281043 0.988164 0.0012364
233 1 0.1 0.1 0
234 1 0.1 0.15 0
235 1 0.108988 0.128964 8.89203e-05
236 1 0.0815087 0.144549 0.000166432
237 1 0.0540295 0.160133 0.000243943
238 1 0.00883135 0.151401 0.000204912
239 1 0.971098 0.121987 0.000233965
240 1 0.988042 0.084844 0.0002917
241 1 0.994243 0.131575 0.000325034
242 1 8.448e-05 0.130722 0.000424334
243 1 0.962351 0.159776 0.000393865
244 1 0.935167 0.195907 0.00043655
245 1 0.936377 0.195907 0.00053652
246 1 0.899032 0.179414 0.000594255
247 1 0.930727 0.165447 0.000666375
248 1 0.935255 0.117508 0.000693312
249 1 0.972769 0.130599 0.00075402
250 1 0.00513184 0.105714 0.000696285
251 1 0.00814072 0.150968 0.000654188
252 1 0.0454856 0.167461 0.000596453
253 1 0.0901983 0.158728 0.00063766
254 1 0.104431 0.127529 0.000564885
255 1 0.0730617 0.113675 0.00049211
256 1 0.0384655 0.149443 0.00050186
257 1 0.0550559 0.196174 0.000489057
258 1 0.102826 0.210376 0.000480984
259 1 0.11645 0.258203 0.000491374
260 1 0.148145 0.29443 0.000518435
261 1 0.100733 0.279075 0.000510362
262 1 0.0735479 0.315207 0.000553046
263 1 0.0299775 0.333601 0.000520593
264 1 0.05766 0.313361 0.000447818
265 1 0.1 0.2 0
266 1 0.1 0.25 0
267 1 0.1 0.3 0
268 1 0.1 0.35 0
269 1 0.1 0.4 0
270 1 0.1 0.45 0
271 1 0.108988 0.428964 8.89203e-05
272 1 0.108988 0.427754 0.000188891
273 1 0.111997 0.450431 0.000277811
274 1 0.109537 0.427688 0.000366732
275 1 0.100043 0.4485 0.000455652
276 1 0.105885 0.447647 0.000554952
277 1 0.150306 0.470324 0.000547859
278 1 0.182001 0.50655 0.000574919
279 1 0.154816 0.542682 0.000617604
280 1 0.19233 0.555773 0.000678311
281 1 0.165145 0.591905 0.000720995
282 1 0.193202 0.612808 0.000792433
283 1 0.199403 0.595578 0.000885485
284 1 0.179838 0.638466 0.000918818
285 1 0.158695 0.629734 0.00100774
286 1 0.152093 0.676464 0.000974715
287 1 0.114748 0.659971 0.00103245
288 1 0.108146 0.706702 0.000999427
289 1 0.108146 0.706702 0.000899427
290 1 0.118555 0.75544 0.000891354
291 1 0.101611 0.792583 0.000833619
292 1 0.133306 0.805673 0.000760844
293 1 0.119784 0.757735 0.000769574
294 1 0.119784 0.757735 0.000669574
295 1 0.0820508 0.728321 0.000698627
296 1 0.0779671 0.750998 0.000609879
297 1 0.105446 0.735413 0.000532367
298 1 0.1 0.5 0
299 1 0.1 0.55 0
300 1 0.1 0.6 0
301 1 0.1 0.65 0
302 1 0.1 0.7 0
303 1 0.0975407 0.677257 8.89203e-05
304 1 0.103741 0.723988 0.000122254
305 1 0.142162 0.708403 0.000178146
306 1 0.113753 0.692818 0.000254305
307 1 0.116762 0.648087 0.00029858
308 1 0.0807057 0.66899 0.000353825
309 1 0.118219 0.682081 0.000414533
310 1 0.0970762 0.673349 0.000503453
311 1 0.0610203 0.694252 0.000558699
312 1 0.0404474 0.666816 0.000485924
313 1 0.0132627 0.645039 0.000557666
314 1 0.0449579 0.60915 0.000528861
315 1 0.0238147 0.618956 0.000440389
316 1 0.980244 0.600961 0.000473722
317 1 0.0126076 0.571209 0.000521365
318 1 0.1 0.75 0
319 1 0.1 0.8 0
320 1 0.1 0.85 0
321 1 0.108988 0.828964 8.89203e-05
322 1 0.0954657 0.781025 9.76499e-05
323 1 0.0594098 0.801929 0.000152896
324 1 0.0969235 0.81502 0.000213603
325 1 0.143849 0.810519 0.000246937
326 1 0.116664 0.846651 0.000289621
327 1 0.125652 0.825615 0.000378541
328 1 0.0948464 0.838706 0.000452828
329 1 0.0993744 0.790767 0.000479765
330 1 0.0951736 0.742829 0.000452617
331 1 0.0499754 0.734096 0.000413585
332 1 0.0816706 0.747187 0.00034081
333 1 0.099805 0.762203 0.000252591
334 1 0.0554833 0.78488 0.000261832
335 1 0.053024 0.762137 0.000350752
336 1 0.0318807 0.753404 0.000439672
337 1 0.00770498 0.756913 0.000526924
338 1 0.98052 0.777816 0.000454149
339 1 0.96448 0.815358 0.000511884
340 1 0.943337 0.806625 0.000600804
341 1 0.899015 0.829302 0.000610045
342 1 0.912639 0.833918 0.000514273
343 1 0.885455 0.87005 0.000556957
344 1 0.922799 0.886543 0.000499222
345 1 0.946494 0.919788 0.000556957
346 1 0.981871 0.940692 0.000499982
347 1 0.0135662 0.926724 0.000572103
348 1 0.0419751 0.942309 0.000495943
349 1 0.0377742 0.89437 0.000468795
350 1 0.0731511 0.915274 0.000411821
351 1 0.0793516 0.86896 0.000376236
352 1 0.0409311 0.884545 0.000320344
353 1 0.1 0.9 0
354 1 0.117193 0.882004 8.67311e-05
355 1 0.107698 0.902817 0.000175651
356 1 0.0982042 0.923629 0.000264572
357 1 0.1 0.95 0
358 1 0.10121 0.95 9.99707e-05
359 1 0.15 0 0
360 1 0.15 0.05 0
361 1 0.140506 0.0708124 8.89203e-05
362 1 0.15 0.1 0
363 1 0.15 0.15 0
364 1 0.15 0.2 0
365 1 0.1562 0.182769 9.30517e-05
366 1 0.184258 0.203673 0.00016449
367 1 0.156778 0.219257 0.000242001
368 1 0.125973 0.232348 0.000316289
369 1 0.15403 0.253251 0.000387727
370 1 0.185725 0.289478 0.000414787
371 1 0.21742 0.325704 0.000441847
372 1 0.196277 0.369818 0.000462528
373 1 0.152707 0.351823 0.000495862
374 1 0.158 0.38759 0.000564931
375 1 0.174944 0.350448 0.000622666
376 1 0.177952 0.373125 0.000711586
377 1 0.225723 0.387328 0.000703514
378 1 0.231923 0.370097 0.000796565
379 1 0.194578 0.353604 0.0008543
380 1 0.208811 0.322404 0.000781525
381 1 0.224851 0.284863 0.00072379
382 1 0.256546 0.321089 0.000750851
383 1 0.15 0.25 0
384 1 0.153009 0.272677 8.89203e-05
385 1 0.103013 0.272677 9.01301e-05
386 1 0.125784 0.270493 0.00017905
387 1 0.0822133 0.252497 0.000212384
388 1 0.0852222 0.275174 0.000301304
389 1 0.0474892 0.24576 0.000330358
390 1 0.050498 0.201029 0.000374632
391 1 0.0344579 0.238571 0.000432368
392 1 0.072191 0.267985 0.000403314
393 1 0.0344579 0.2524 0.000345579
394 1 0.996725 0.281454 0.00031511
395 1 0.0340698 0.297947 0.000257375
396 1 0.0171261 0.33509 0.00019964
397 1 0.994414 0.337824 0.00028856
398 1 0.011607 0.319828 0.000375291
399 1 0.15 0.3 0
400 1 0.15 0.35 0
401 1 0.15 0.4 0
402 1 0.170926 0.409242 8.89203e-05
403 1 0.15 0.45 0
404 1 0.15 0.5 0
405 1 0.1562 0.482769 9.30517e-05
406 1 0.123837 0.507655 0.000150787
407 1 0.146608 0.505471 0.000239707
408 1 0.15 0.55 0
409 1 0.1562 0.532769 9.30517e-05
410 1 0.187896 0.518802 0.000165172
411 1 0.182828 0.471934 0.000198505
412 1 0.206522 0.505179 0.00025624
413 1 0.186957 0.548068 0.000289573
414 1 0.164246 0.550802 0.000378494
415 1 0.161786 0.528059 0.000467414
416 1 0.148264 0.480121 0.000476144
417 1 0.179959 0.493212 0.000403369
418 1 0.143191 0.506303 0.000340864
419 1 0.112386 0.519394 0.000415151
420 1 0.112386 0.518184 0.000515122
421 1 0.0976058 0.565779 0.000507049
422 1 0.126015 0.581363 0.00043089
423 1 0.169137 0.600408 0.000464223
424 1 0.163767 0.559938 0.000521958
425 1 0.180358 0.606669 0.000509155
426 1 0.186558 0.589438 0.000602207
427 1 0.22968 0.608483 0.00063554
428 1 0.21364 0.646024 0.000693275
429 1 0.17007 0.662027 0.000730452
430 1 0.15 0.6 0
431 1 0.128857 0.591267 8.89203e-05
432 1 0.126397 0.568524 0.000177841
433 1 0.15 0.65 0
434 1 0.163624 0.644227 9.55209e-05
435 1 0.132818 0.657318 0.000169808
436 1 0.15 0.7 0
437 1 0.15 0.75 0
438 1 0.15 0.8 0
439 1 0.15 0.85 0
440 1 0.15 0.9 0
441 1 0.15 0.95 0
442 1 0.163624 0.944227 9.55209e-05
443 1 0.136439 0.980359 0.000138205
444 1 0.160706 0.0239388 0.000145105
445 1 0.113293 0.00858429 0.000137033
446 1 0.116302 0.0312612 0.000225953
447 1 0.113843 0.00851812 0.000314873
448 1 0.0702722 0.0245208 0.000352051
449 1 0.0430876 0.0606526 0.000394735
450 1 0.00535455 0.0312386 0.000423788
451 1 0.0111965 0.0303853 0.000523089
452 1 0.0157246 0.982447 0.000550026
453 1 0.979669 0.00335012 0.000605271
454 1 0.0171824 0.016441 0.000665979
455 1 0.0341261 0.979298 0.000723714
456 1 0.0483586 0.948099 0.000650939
457 1 0.0760411 0.92786 0.000578164
458 1 0.10352 0.912275 0.000500653
459 1 0.131929 0.92786 0.000424494
460 1 0.104745 0.948763 0.000351719
461 1 0.2 0 0
462 1 0.2 0.05 0
463 1 0.203009 0.0726769 8.89203e-05
464 1 0.17553 0.0882617 0.000166432
465 1 0.14805 0.103846 0.000243943
466 1 0.2 0.1 0
467 1 0.2 0.15 0
468 1 0.2062 0.132769 9.30517e-05
469 1 0.2 0.2 0
470 1 0.2 0.25 0
471 1 0.2 0.24879 9.99707e-05
472 1 0.2 0.298787 0.000101181
473 1 0.177288 0.301521 0.000190101
474 1 0.148879 0.285936 0.00026626
475 1 0.129314 0.328825 0.000299593
476 1 0.142938 0.376652 0.000309983
477 1 0.105593 0.360158 0.000367718
478 1 0.0844502 0.369964 0.000279247
479 1 0.0536447 0.383055 0.000353534
480 1 0.0401713 0.41459 0.000280759
481 1 0.0174596 0.417324 0.00036968
482 1 0.0186694 0.417324 0.00046965
483 1 0.0141589 0.450428 0.000544049
484 1 0.0171678 0.405697 0.000588324
485 1 0.969755 0.390342 0.000580251
486 1 0.931335 0.405927 0.000524359
487 1 0.90415 0.370322 0.000479939
488 1 0.881438 0.373056 0.000568859
489 1 0.926151 0.364323 0.000610066
490 1 0.921083 0.317456 0.0006434
491 1 0.924092 0.340133 0.00073232
492 1 0.909312 0.387728 0.000724247
493 1 0.870892 0.403313 0.000668355
494 1 0.2 0.3 0
495 1 0.2 0.35 0
496 1 0.2 0.34879 9.99707e-05
497 1 0.150004 0.34879 0.000101181
498 1 0.122524 0.364375 0.000178692
499 1 0.167237 0.355642 0.0002199
500 1 0.211658 0.378319 0.000212807
501 1 0.190514 0.422433 0.000233487
502 1 0.188055 0.39969 0.000322408
503 1 0.178561 0.420502 0.000411328
504 1 0.199487 0.429744 0.000500248
505 1 0.23722 0.445329 0.000557983
506 1 0.25381 0.49206 0.00054518
507 1 0.2 0.4 0
508 1 0.2 0.45 0
509 1 0.20121 0.45 9.99707e-05
510 1 0.232905 0.486226 0.000127031
511 1 0.260962 0.50713 0.000198469
512 1 0.289019 0.528033 0.000269907
513 1 0.269454 0.570922 0.000303241
514 1 0.233398 0.591825 0.000358486
515 1 0.217358 0.629367 0.000416221
516 1 0.254872 0.642458 0.000476929
517 1 0.233729 0.686572 0.00049761
518 1 0.206249 0.702156 0.000575121
519 1 0.237945 0.738383 0.000602182
520 1 0.251568 0.732609 0.000697703
521 1 0.280825 0.757495 0.000761726
522 1 0.283834 0.780172 0.000850646
523 1 0.246489 0.763679 0.000908381
524 1 0.24403 0.740936 0.000997301
525 1 0.269774 0.698209 0.00100413
526 1 0.251537 0.680213 0.000918257
527 1 0.254546 0.635482 0.000962531
528 1 0.299259 0.626749 0.00100374
529 1 0.32203 0.624565 0.00109266
530 1 0.32203 0.674561 0.00109387
531 1 0.32823 0.65733 0.00118692
532 1 0.300751 0.672915 0.00126443
533 1 0.279608 0.628564 0.00124589
534 1 0.241875 0.59915 0.00127495
535 1 0.243085 0.59915 0.00137492
536 1 0.214676 0.583565 0.00145108
537 1 0.209306 0.543095 0.00150881
538 1 0.247039 0.528213 0.00145034
539 1 0.267965 0.537455 0.00153926
540 1 0.281589 0.531682 0.00163478
541 1 0.272094 0.552494 0.0017237
542 1 0.258572 0.504556 0.00173243
543 1 0.221804 0.517647 0.00166992
544 1 0.249486 0.497407 0.00159715
545 1 0.202074 0.482053 0.00158908
546 1 0.157752 0.50473 0.00159832
547 1 0.160761 0.483135 0.00150833
548 1 0.123028 0.512189 0.00147786
549 1 0.101885 0.521995 0.00138939
550 1 0.0858447 0.559537 0.00144712
551 1 0.0422743 0.543089 0.00141073
552 1 0.038823 0.555259 0.00150747
553 1 0.0554134 0.60199 0.00149467
554 1 0.0327017 0.604725 0.00158359
555 1 0.00189629 0.617816 0.00165788
556 1 0.980753 0.609083 0.0017468
557 1 0.986954 0.562769 0.00171121
558 1 0.939541 0.547414 0.00170314
559 1 0.892739 0.553049 0.00173648
560 1 0.842742 0.553049 0.00173769
561 1 0.821599 0.562855 0.00164921
562 1 0.794414 0.541077 0.00172096
563 1 0.826109 0.505189 0.00169215
564 1 0.2 0.5 0
565 1 0.2 0.55 0
566 1 0.203009 0.572677 8.89203e-05
567 1 0.209209 0.619408 0.000122254
568 1 0.2 0.6 0
569 1 0.2 0.65 0
570 1 0.2 0.7 0
571 1 0.2 0.75 0
572 1 0.2 0.8 0
573 1 0.213624 0.794227 9.55209e-05
574 1 0.166211 0.778872 8.74482e-05
575 1 0.183404 0.760876 0.000174179
576 1 0.154995 0.745292 0.000250338
577 1 0.175921 0.754533 0.000339259
578 1 0.2 0.85 0
579 1 0.213624 0.844227 9.55209e-05
580 1 0.2 0.9 0
581 1 0.178857 0.891267 8.89203e-05
582 1 0.221979 0.910312 0.000122254
583 1 0.223189 0.910312 0.000222224
584 1 0.208409 0.957907 0.000214152
585 1 0.164839 0.939911 0.000247485
586 1 0.151316 0.891973 0.000256215
587 1 0.152526 0.891973 0.000356185
588 1 0.150067 0.869229 0.000445106
589 1 0.145556 0.831632 0.000510408
590 1 0.101235 0.854309 0.000519649
591 1 0.110223 0.833273 0.000608569
592 1 0.13828 0.854177 0.000680007
593 1 0.15487 0.900908 0.000667204
594 1 0.117137 0.915789 0.000725676
595 1 0.139908 0.913605 0.000814597
596 1 0.120343 0.956494 0.00084793
597 1 0.100778 0.999383 0.000881263
598 1 0.0634334 0.982889 0.000938998
599 1 0.0587637 0.0233595 0.000996976
600 1 0.0815349 0.0211755 0.0010859
601 1 0.0447666 0.0342665 0.00102339
602 1 0.00119624 0.0526601 0.000990939
603 1 0.0073967 0.00634618 0.000955354
604 1 0.00493739 0.983603 0.00104427
605 1 0.02213 0.965607 0.00113101
606 1 0.994945 0.00173927 0.00117369
607 1 0.973802 0.0458532 0.00119437
608 1 0.0113158 0.0589441 0.00125508
609 1 0.0279062 0.105675 0.00124227
610 1 0.0238225 0.128352 0.00115353
611 1 0.2 0.95 0
612 1 0.25 0 0
613 1 0.228857 0.991267 8.89203e-05
614 1 0.225113 0.0348476 0.000137366
615 1 0.253394 0.0725624 0.000170699
616 1 0.256403 0.0278312 0.000214974
617 1 0.294824 0.0122464 0.000270866
618 1 0.267639 0.990469 0.000342608
619 1 0.284583 0.953326 0.000400343
620 1 0.239385 0.944593 0.000361311
621 1 0.218241 0.988707 0.000381992
622 1 0.191057 0.953102 0.000337572
623 1 0.153324 0.982156 0.000307103
624 1 0.181381 0.0030598 0.000378541
625 1 0.154196 0.981282 0.000450284
626 1 0.19171 0.994373 0.000510991
627 1 0.144297 0.979019 0.000502918
628 1 0.157921 0.973245 0.000598439
629 1 0.157921 0.0232415 0.000599649
630 1 0.114351 0.00524586 0.000632983
631 1 0.0932075 0.0150517 0.000544511
632 1 0.0932075 0.0150517 0.000444511
633 1 0.0736425 0.0579404 0.000477844
634 1 0.111012 0.0735533 0.000536486
635 1 0.0826035 0.0579686 0.000612645
636 1 0.088804 0.0407377 0.000705697
637 1 0.0579985 0.0538286 0.000779984
638 1 0.0625266 0.00589016 0.000806921
639 1 0.0670547 0.957952 0.000833858
640 1 0.25 0.05 0
641 1 0.25 0.1 0
642 1 0.25 0.15 0
643 1 0.270926 0.159242 8.89203e-05
644 1 0.227355 0.175244 0.000126098
645 1 0.228565 0.175244 0.000226068
646 1 0.215043 0.127306 0.000234798
647 1 0.218052 0.0825746 0.000279073
648 1 0.190867 0.118707 0.000321757
649 1 0.160062 0.131797 0.000396044
650 1 0.138919 0.175911 0.000416725
651 1 0.145119 0.158681 0.000509776
652 1 0.158743 0.206507 0.000520167
653 1 0.181514 0.204323 0.000609087
654 1 0.195138 0.156385 0.000601014
655 1 0.25 0.2 0
656 1 0.25 0.25 0
657 1 0.25 0.3 0
658 1 0.247541 0.277257 8.89203e-05
659 1 0.25 0.35 0
660 1 0.25 0.4 0
661 1 0.228857 0.391267 8.89203e-05
662 1 0.25 0.45 0
663 1 0.25 0.5 0
664 1 0.25 0.55 0
665 1 0.25121 0.55 9.99707e-05
666 1 0.264834 0.597827 0.000110361
667 1 0.242122 0.600561 0.000199281
668 1 0.220979 0.55621 0.000180741
669 1 0.176657 0.578887 0.000189982
670 1 0.25 0.6 0
671 1 0.25 0.65 0
672 1 0.25 0.7 0
673 1 0.247541 0.677257 8.89203e-05
674 1 0.209808 0.692139 0.000147393
675 1 0.25 0.75 0
676 1 0.247541 0.727257 8.89203e-05
677 1 0.25 0.8 0
678 1 0.25 0.85 0
679 1 0.25 0.9 0
680 1 0.25 0.95 0
681 1 0.3 0 0
682 1 0.317193 0.982004 8.67311e-05
683 1 0.291539 0.0246211 9.6869e-05
684 1 0.3 0.05 0
685 1 0.3 0.1 0
686 1 0.277288 0.102734 8.89203e-05
687 1 0.315709 0.0871496 0.000144812
688 1 0.353442 0.102734 0.000202547
689 1 0.356451 0.125411 0.000291468
690 1 0.306454 0.125411 0.000292678
691 1 0.323398 0.0882686 0.000350413
692 1 0.2782 0.0795359 0.000311381
693 1 0.257057 0.12365 0.000332062
694 1 0.240626 0.170381 0.000345664
695 1 0.213441 0.206513 0.000388348
696 1 0.175708 0.190928 0.000330613
697 1 0.148524 0.155323 0.000286193
698 1 0.162148 0.159939 0.000190421
699 1 0.3 0.15 0
700 1 0.3 0.2 0
701 1 0.3 0.25 0
702 1 0.278857 0.241267 8.89203e-05
703 1 0.256145 0.244002 0.000177841
704 1 0.228666 0.259586 0.000255352
705 1 0.266399 0.275171 0.000313087
706 1 0.269408 0.297848 0.000402007
707 1 0.269408 0.296638 0.000501978
708 1 0.275608 0.279407 0.00059503
709 1 0.248424 0.315539 0.000637714
710 1 0.203226 0.306807 0.000598682
711 1 0.165492 0.277392 0.000627736
712 1 0.121922 0.293395 0.000664913
713 1 0.144693 0.291211 0.000753833
714 1 0.139625 0.244344 0.000787167
715 1 0.10882 0.257435 0.000861454
716 1 0.0710868 0.286489 0.000830985
717 1 0.0326664 0.302073 0.000775093
718 1 0.0601456 0.286489 0.000697582
719 1 0.0466234 0.23855 0.000706311
720 1 0.0602472 0.243166 0.000610539
721 1 0.0150491 0.234434 0.000571507
722 1 0.00967932 0.27559 0.000515748
723 1 0.986968 0.278325 0.000604668
724 1 0.0186628 0.314551 0.000631728
725 1 0.3 0.3 0
726 1 0.290506 0.320812 8.89203e-05
727 1 0.328239 0.291758 0.000119389
728 1 0.301054 0.269981 0.000191131
729 1 0.318247 0.251985 0.000277862
730 1 0.321256 0.207254 0.000322137
731 1 0.292847 0.191669 0.000398296
732 1 0.311368 0.14832 0.000431629
733 1 0.264566 0.153954 0.000464962
734 1 0.220995 0.137507 0.00042857
735 1 0.195342 0.131922 0.000513675
736 1 0.233762 0.116338 0.000569567
737 1 0.236771 0.161591 0.00052747
738 1 0.269134 0.13184 0.000575113
739 1 0.262532 0.178571 0.00054209
740 1 0.294228 0.214797 0.00056915
741 1 0.291768 0.192054 0.00065807
742 1 0.308961 0.174058 0.000744801
743 1 0.30476 0.12612 0.000717653
744 1 0.313748 0.105084 0.000806574
745 1 0.319948 0.087853 0.000899625
746 1 0.347631 0.0676135 0.00082685
747 1 0.347631 0.0176465 0.000823221
748 1 0.30406 0.0336491 0.000860399
749 1 0.266327 0.0627031 0.00082993
750 1 0.256833 0.0835155 0.00091885
751 1 0.226028 0.0966064 0.000993138
752 1 0.182255 0.0826622 0.00103261
753 1 0.220675 0.0670774 0.0010885
754 1 0.255379 0.0643417 0.00101672
755 1 0.234236 0.108456 0.0010374
756 1 0.274768 0.103576 0.00109514
757 1 0.312282 0.116667 0.00115584
758 1 0.356702 0.139344 0.00114875
759 1 0.388398 0.125376 0.00122087
760 1 0.357592 0.138467 0.00129516
761 1 0.341161 0.185198 0.00130876
762 1 0.378895 0.200783 0.0013665
763 1 0.381903 0.22346 0.00145542
764 1 0.387273 0.251836 0.00153705
765 1 0.425006 0.28125 0.00150799
766 1 0.408062 0.318392 0.00145026
767 1 0.421686 0.366219 0.00146065
768 1 0.421686 0.416215 0.00146186
769 1 0.417176 0.378618 0.00152716
770 1 0.4308 0.372845 0.00162268
771 1 0.468533 0.402259 0.00159363
772 1 0.488594 0.393526 0.00150371
773 1 0.502218 0.398142 0.00140794
774 1 0.45702 0.38941 0.00136891
775 1 0.45702 0.38941 0.00126891
776 1 0.492397 0.410313 0.00121193
777 1 0.519876 0.394728 0.00113442
778 1 0.3 0.35 0
779 1 0.3 0.4 0
780 1 0.3 0.45 0
781 1 0.278857 0.441267 8.89203e-05
782 1 0.257714 0.432535 0.000177841
783 1 0.280485 0.430351 0.000266761
784 1 0.236163 0.453028 0.000276001
785 1 0.236163 0.451818 0.000375972
786 1 0.273896 0.481232 0.000346918
787 1 0.276905 0.503909 0.000435839
788 1 0.260474 0.55064 0.000449441
789 1 0.216904 0.566642 0.000486618
790 1 0.255324 0.551058 0.000542511
791 1 0.264312 0.530022 0.000631431
792 1 0.282834 0.486672 0.000664764
793 1 0.310516 0.466433 0.000591989
794 1 0.342211 0.479524 0.000519214
795 1 0.360733 0.436174 0.000552548
796 1 0.398466 0.465588 0.000523494
797 1 0.44162 0.447592 0.000488062
798 1 0.459755 0.433648 0.000576982
799 1 0.479658 0.461573 0.000504207
800 1 0.463618 0.499115 0.000561942
801 1 0.420047 0.517509 0.00052949
802 1 0.404007 0.555051 0.000587225
803 1 0.387063 0.592193 0.00052949
804 1 0.430218 0.574198 0.000494058
805 1 0.458275 0.595101 0.000565496
806 1 0.502988 0.586368 0.000606703
807 1 0.466932 0.607272 0.000661949
808 1 0.430876 0.628175 0.000717195
809 1 0.473998 0.64722 0.000750528
810 1 0.477007 0.692473 0.000708431
811 1 0.477007 0.692473 0.000608431
812 1 0.3 0.5 0
813 1 0.277288 0.502734 8.89203e-05
814 1 0.3 0.55 0
815 1 0.3 0.6 0
816 1 0.3 0.65 0
817 1 0.3 0.7 0
818 1 0.3062 0.682769 9.30517e-05
819 1 0.3 0.75 0
820 1 0.322771 0.747816 8.89203e-05
821 1 0.282133 0.751714 0.000146655
822 1 0.2444 0.766595 0.000205128
823 1 0.248928 0.718657 0.000232064
824 1 0.267449 0.675307 0.000265398
825 1 0.31187 0.697984 0.000258305
826 1 0.332796 0.707226 0.000347225
827 1 0.379721 0.702725 0.000380558
828 1 0.411416 0.738952 0.000407619
829 1 0.436028 0.782287 0.000399546
830 1 0.407619 0.766702 0.000475705
831 1 0.398125 0.787515 0.000564625
832 1 0.354555 0.805908 0.000532173
833 1 0.382964 0.821493 0.000456013
834 1 0.363399 0.864382 0.000489347
835 1 0.377123 0.882683 0.000578267
836 1 0.381651 0.834745 0.000605204
837 1 0.33808 0.850748 0.000642381
838 1 0.341089 0.873425 0.000731301
839 1 0.344098 0.918678 0.000689204
840 1 0.300528 0.934681 0.000726382
841 1 0.300528 0.934681 0.000626382
842 1 0.3 0.8 0
843 1 0.322771 0.797816 8.89203e-05
844 1 0.3 0.85 0
845 1 0.277288 0.852734 8.89203e-05
846 1 0.248879 0.83715 0.000165079
847 1 0.202077 0.842784 0.000198413
848 1 0.203287 0.842784 0.000298383
849 1 0.216911 0.794846 0.000290311
850 1 0.254424 0.807937 0.000351018
851 1 0.250223 0.759998 0.00032387
852 1 0.206653 0.742002 0.000357204
853 1 0.211181 0.694064 0.00038414
854 1 0.167611 0.677616 0.000347748
855 1 0.167611 0.677616 0.000247748
856 1 0.17062 0.632885 0.000292023
857 1 0.21839 0.647088 0.00028395
858 1 0.3 0.9 0
859 1 0.322771 0.897816 8.89203e-05
860 1 0.301628 0.889083 0.000177841
861 1 0.333323 0.92531 0.000204901
862 1 0.289001 0.947987 0.000214142
863 1 0.326515 0.961078 0.000274849
864 1 0.355558 0.00154771 0.000283486
865 1 0.346064 0.0223601 0.000372407
866 1 0.332542 0.974422 0.000381136
867 1 0.370275 0.945368 0.000411605
868 1 0.371485 0.945368 0.000511576
869 1 0.408999 0.958459 0.000572283
870 1 0.381814 0.99459 0.000614967
871 1 0.40274 0.00383218 0.000703888
872 1 0.374331 0.988247 0.000780047
873 1 0.374331 0.93828 0.000776418
874 1 0.336598 0.908866 0.000805472
875 1 0.309413 0.944998 0.000848156
876 1 0.326606 0.927003 0.000934887
877 1 0.313083 0.879064 0.000943616
878 1 0.347787 0.882667 0.00101524
879 1 0.320308 0.898252 0.00109276
880 1 0.36343 0.917297 0.00112609
881 1 0.369631 0.900066 0.00121914
882 1 0.388152 0.856716 0.00125247
883 1 0.388152 0.856716 0.00115247
884 1 0.350419 0.841132 0.00109474
885 1 0.306849 0.823136 0.00112807
886 1 0.306849 0.823136 0.00102807
887 1 0.259437 0.807781 0.00102
888 1 0.256977 0.785038 0.00110892
889 1 0.261505 0.7371 0.00113586
890 1 0.211509 0.7371 0.00113707
891 1 0.225741 0.705901 0.00106429
892 1 0.208798 0.743043 0.00100656
893 1 0.187654 0.752849 0.000918085
894 1 0.193855 0.79958 0.000951419
895 1 0.189185 0.84005 0.0010094
896 1 0.151452 0.854932 0.00106787
897 1 0.107882 0.870935 0.00110505
898 1 0.0635601 0.893611 0.00111429
899 1 0.0863313 0.891428 0.00120321
900 1 0.0908594 0.843489 0.00123014
901 1 0.113631 0.841305 0.00131906
902 1 0.0758975 0.856187 0.00137754
903 1 0.0385526 0.839694 0.00143527
904 1 0.0101437 0.824109 0.00151143
905 1 0.987432 0.826843 0.00160035
906 1 0.971001 0.873574 0.00161395
907 1 0.984625 0.867801 0.00170947
908 1 0.3 0.95 0
909 1 0.278857 0.941267 8.89203e-05
910 1 0.35 0 0
911 1 0.35 0.05 0
912 1 0.35 0.1 0
913 1 0.35 0.15 0