LAMMPS Description

200	 atoms
100	 bonds
0	angles
0	dihedrals
0	impropers

2	atom types
1	bond types
0	angle types
0	dihedral types
0	improper types

5 5 xlo xhi
5 5 ylo yhi
-0 10000 zlo zhi


Masses
	1 1.0
	2 1.0

Atoms

1 1 2 -5 -5 0
2 2 2 -5 -4 0
3 3 2 -5 -3 0
4 4 2 -5 -2 0
5 5 2 -5 -1 0
6 6 2 -5 0 0
7 7 2 -5 1 0
8 8 2 -5 2 0
9 9 2 -5 3 0
10 10 2 -5 4 0
11 11 2 -4 -5 0
12 12 2 -4 -4 0
13 13 2 -4 -3 0
14 14 2 -4.45423 -2.94531 0.889203
15 15 2 -4.45423 -2.94531 0.889203
16 16 2 -4.45423 -2.94531 0.889203
17 17 2 -4.45423 -2.94531 0.889203
18 18 2 -4.45423 -2.94531 0.889203
19 19 2 -4.45423 -2.94531 0.889203
20 20 2 -4.45423 -2.94531 0.889203
21 21 2 -4.45423 -2.94531 0.889203
22 22 2 -4.45423 -2.94531 0.889203
23 23 2 -4.45423 -2.94531 0.889203
24 24 2 -4.45423 -2.94531 0.889203
25 25 2 -4.45423 -2.94531 0.889203
26 26 2 -4.45423 -2.94531 0.889203
27 27 2 -4.45423 -2.94531 0.889203
28 28 2 -4.45423 -2.94531 0.889203
29 29 2 -4.45423 -2.94531 0.889203
30 30 2 -4.45423 -2.94531 0.889203
31 31 2 -4.45423 -2.94531 0.889203
32 32 2 -4.45423 -2.94531 0.889203
33 33 2 -4.45423 -2.94531 0.889203
34 34 2 -4.45423 -2.94531 0.889203
35 35 2 -4.45423 -2.94531 0.889203
36 36 2 -4.45423 -2.94531 0.889203
37 37 2 -4.45423 -2.94531 0.889203
38 38 2 -4.45423 -2.94531 0.889203
39 39 2 -4.45423 -2.94531 0.889203
40 40 2 -4.45423 -2.94531 0.889203
41 41 2 -4.45423 -2.94531 0.889203
42 42 2 -4.45423 -2.94531 0.889203
43 43 2 -4.45423 -2.94531 0.889203
44 44 2 -4.45423 -2.94531 0.889203
45 45 2 -4.45423 -2.94531 0.889203
46 46 2 -4.45423 -2.94531 0.889203
47 47 2 -4.45423 -2.94531 0.889203
48 48 2 -4.45423 -2.94531 0.889203
49 49 2 -4.45423 -2.94531 0.889203
50 50 2 -4.45423 -2.94531 0.889203
51 51 2 -4.45423 -2.94531 0.889203
52 52 2 -4.45423 -2.94531 0.889203
53 53 2 -4.45423 -2.94531 0.889203
54 54 2 -4.45423 -2.94531 0.889203
55 55 2 -4.45423 -2.94531 0.889203
56 56 2 -4.45423 -2.94531 0.889203
57 57 2 -4.45423 -2.94531 0.889203
58 58 2 -4.45423 -2.94531 0.889203
59 59 2 -4.45423 -2.94531 0.889203
60 60 2 -4.45423 -2.94531 0.889203
61 61 2 -4.45423 -2.94531 0.889203
62 62 2 -4.45423 -2.94531 0.889203
63 63 2 -4.45423 -2.94531 0.889203
64 64 2 -4.45423 -2.94531 0.889203
65 65 2 -4.45423 -2.94531 0.889203
66 66 2 -4.45423 -2.94531 0.889203
67 67 2 -4.45423 -2.94531 0.889203
68 68 2 -4.45423 -2.94531 0.889203
69 69 2 -4.45423 -2.94531 0.889203
70 70 2 -4.45423 -2.94531 0.889203
71 71 2 -4.45423 -2.94531 0.889203
72 72 2 -4.45423 -2.94531 0.889203
73 73 2 -4.45423 -2.94531 0.889203
74 74 2 -4.45423 -2.94531 0.889203
75 75 2 -4.45423 -2.94531 0.889203
76 76 2 -4.45423 -2.94531 0.889203
77 77 2 -4.45423 -2.94531 0.889203
78 78 2 -4.45423 -2.94531 0.889203
79 79 2 -4.45423 -2.94531 0.889203
80 80 2 -4.45423 -2.94531 0.889203
81 81 2 -4.45423 -2.94531 0.889203
82 82 2 -4.45423 -2.94531 0.889203
83 83 2 -4.45423 -2.94531 0.889203
84 84 2 -4.45423 -2.94531 0.889203
85 85 2 -4.45423 -2.94531 0.889203
86 86 2 -4.45423 -2.94531 0.889203
87 87 2 -4.45423 -2.94531 0.889203
88 88 2 -4.45423 -2.94531 0.889203
89 89 2 -4.45423 -2.94531 0.889203
90 90 2 -4.45423 -2.94531 0.889203
91 91 2 -4.45423 -2.94531 0.889203
92 92 2 -4.45423 -2.94531 0.889203
93 93 2 -4.45423 -2.94531 0.889203
94 94 2 -4.45423 -2.94531 0.889203
95 95 2 -4.45423 -2.94531 0.889203
96 96 2 -4.45423 -2.94531 0.889203
97 97 2 -4.45423 -2.94531 0.889203
98 98 2 -4.45423 -2.94531 0.889203
99 99 2 -4.45423 -2.94531 0.889203
100 100 2 -4.45423 -2.94531 0.889203
101 101 2 -4.45423 -2.94531 0.889203
102 102 2 -4.45423 -2.94531 0.889203
103 103 2 -4.45423 -2.94531 0.889203
104 104 2 -4.45423 -2.94531 0.889203
105 105 2 -4.45423 -2.94531 0.889203
106 106 2 -4.45423 -2.94531 0.889203
107 107 2 -4.45423 -2.94531 0.889203
108 108 2 -4.45423 -2.94531 0.889203
109 109 2 -4.45423 -2.94531 0.889203
110 110 2 -4.45423 -2.94531 0.889203
111 111 2 -4.45423 -2.94531 0.889203
112 112 2 -4.45423 -2.94531 0.889203
113 113 2 -4.45423 -2.94531 0.889203
114 114 2 -4.45423 -2.94531 0.889203
115 115 2 -4.45423 -2.94531 0.889203
116 116 2 -4.45423 -2.94531 0.889203
117 117 2 -4.45423 -2.94531 0.889203
118 118 2 -4.45423 -2.94531 0.889203
119 119 2 -4.45423 -2.94531 0.889203
120 120 2 -4.45423 -2.94531 0.889203
121 121 2 -4.45423 -2.94531 0.889203
122 122 2 -4.45423 -2.94531 0.889203
123 123 2 -4.45423 -2.94531 0.889203
124 124 2 -4.45423 -2.94531 0.889203
125 125 2 -4.45423 -2.94531 0.889203
126 126 2 -4.45423 -2.94531 0.889203
127 127 2 -4.45423 -2.94531 0.889203
128 128 2 -4.45423 -2.94531 0.889203
129 129 2 -4.45423 -2.94531 0.889203
130 130 2 -4.45423 -2.94531 0.889203
131 131 2 -4.45423 -2.94531 0.889203
132 132 2 -4.45423 -2.94531 0.889203
133 133 2 -4.45423 -2.94531 0.889203
134 134 2 -4.45423 -2.94531 0.889203
135 135 2 -4.45423 -2.94531 0.889203
136 136 2 -4.45423 -2.94531 0.889203
137 137 2 -4.45423 -2.94531 0.889203
138 138 2 -4.45423 -2.94531 0.889203
139 139 2 -4.45423 -2.94531 0.889203
140 140 2 -4.45423 -2.94531 0.889203
141 141 2 -4.45423 -2.94531 0.889203
142 142 2 -4.45423 -2.94531 0.889203
143 143 2 -4.45423 -2.94531 0.889203
144 144 2 -4.45423 -2.94531 0.889203
145 145 2 -4.45423 -2.94531 0.889203
146 146 2 -4.45423 -2.94531 0.889203
147 147 2 -4.45423 -2.94531 0.889203
148 148 2 -4.45423 -2.94531 0.889203
149 149 2 -4.45423 -2.94531 0.889203
150 150 2 -4.45423 -2.94531 0.889203
151 151 2 -4.45423 -2.94531 0.889203
152 152 2 -4.45423 -2.94531 0.889203
153 153 2 -4.45423 -2.94531 0.889203
154 154 2 -4.45423 -2.94531 0.889203
155 155 2 -4.45423 -2.94531 0.889203
156 156 2 -4.45423 -2.94531 0.889203
157 157 2 -4.45423 -2.94531 0.889203
158 158 2 -4.45423 -2.94531 0.889203
159 159 2 -4.45423 -2.94531 0.889203
160 160 2 -4.45423 -2.94531 0.889203
161 161 2 -4.45423 -2.94531 0.889203
162 162 2 -4.45423 -2.94531 0.889203
163 163 2 -4.45423 -2.94531 0.889203
164 164 2 -4.45423 -2.94531 0.889203
165 165 2 -4.45423 -2.94531 0.889203
166 166 2 -4.45423 -2.94531 0.889203
167 167 2 -4.45423 -2.94531 0.889203
168 168 2 -4.45423 -2.94531 0.889203
169 169 2 -4.45423 -2.94531 0.889203
170 170 2 -4.45423 -2.94531 0.889203
171 171 2 -4.45423 -2.94531 0.889203
172 172 2 -4.45423 -2.94531 0.889203
173 173 2 -4.45423 -2.94531 0.889203
174 174 2 -4.45423 -2.94531 0.889203
175 175 2 -4.45423 -2.94531 0.889203
176 176 2 -4.45423 -2.94531 0.889203
177 177 2 -4.45423 -2.94531 0.889203
178 178 2 -4.45423 -2.94531 0.889203
179 179 2 -4.45423 -2.94531 0.889203
180 180 2 -4.45423 -2.94531 0.889203
181 181 2 -4.45423 -2.94531 0.889203
182 182 2 -4.45423 -2.94531 0.889203
183 183 2 -4.45423 -2.94531 0.889203
184 184 2 -4.45423 -2.94531 0.889203
185 185 2 -4.45423 -2.94531 0.889203
186 186 2 -4.45423 -2.94531 0.889203
187 187 2 -4.45423 -2.94531 0.889203
188 188 2 -4.45423 -2.94531 0.889203
189 189 2 -4.45423 -2.94531 0.889203
190 190 2 -4.45423 -2.94531 0.889203
191 191 2 -4.45423 -2.94531 0.889203
192 192 2 -4.45423 -2.94531 0.889203
193 193 2 -4.45423 -2.94531 0.889203
194 194 2 -4.45423 -2.94531 0.889203
195 195 2 -4.45423 -2.94531 0.889203
196 196 2 -4.45423 -2.94531 0.889203
197 197 2 -4.45423 -2.94531 0.889203
198 198 2 -4.45423 -2.94531 0.889203
199 199 2 -4.45423 -2.94531 0.889203
200 200 2 -4.45423 -2.94531 0.889203
201 201 2 -4.45423 -2.94531 0.889203
202 202 2 -4.45423 -2.94531 0.889203
203 203 2 -4.45423 -2.94531 0.889203
204 204 2 -4.45423 -2.94531 0.889203
205 205 2 -4.45423 -2.94531 0.889203
206 206 2 -4.45423 -2.94531 0.889203
207 207 2 -4.45423 -2.94531 0.889203
208 208 2 -4.45423 -2.94531 0.889203
209 209 2 -4.45423 -2.94531 0.889203
210 210 2 -4.45423 -2.94531 0.889203
211 211 2 -4.45423 -2.94531 0.889203
212 212 2 -4.45423 -2.94531 0.889203
213 213 2 -4.45423 -2.94531 0.889203
214 214 2 -4.45423 -2.94531 0.889203
215 215 2 -4.45423 -2.94531 0.889203
216 216 2 -4.45423 -2.94531 0.889203
217 217 2 -4.45423 -2.94531 0.889203
218 218 2 -4.45423 -2.94531 0.889203
219 219 2 -4.45423 -2.94531 0.889203
220 220 2 -4.45423 -2.94531 0.889203
221 221 2 -4.45423 -2.94531 0.889203
222 222 2 -4.45423 -2.94531 0.889203
223 223 2 -4.45423 -2.94531 0.889203
224 224 2 -4.45423 -2.94531 0.889203
225 225 2 -4.45423 -2.94531 0.889203
226 226 2 -4.45423 -2.94531 0.889203
227 227 2 -4.45423 -2.94531 0.889203
228 228 2 -4.45423 -2.94531 0.889203
229 229 2 -4.45423 -2.94531 0.889203
230 230 2 -4.45423 -2.94531 0.889203
231 231 2 -4.45423 -2.94531 0.889203
232 232 2 -4.45423 -2.94531 0.889203
233 233 2 -4.45423 -2.94531 0.889203
234 234 2 -4.45423 -2.94531 0.889203
235 235 2 -4.45423 -2.94531 0.889203
236 236 2 -4.45423 -2.94531 0.889203
237 237 2 -4.45423 -2.94531 0.889203
238 238 2 -4.45423 -2.94531 0.889203
239 239 2 -4.45423 -2.94531 0.889203
240 240 2 -4.45423 -2.94531 0.889203
241 241 2 -4.45423 -2.94531 0.889203
242 242 2 -4.45423 -2.94531 0.889203
243 243 2 -4.45423 -2.94531 0.889203
244 244 2 -4.45423 -2.94531 0.889203
245 245 2 -4.45423 -2.94531 0.889203
246 246 2 -4.45423 -2.94531 0.889203
247 247 2 -4.45423 -2.94531 0.889203
248 248 2 -4.45423 -2.94531 0.889203
249 249 2 -4.45423 -2.94531 0.889203
250 250 2 -4.45423 -2.94531 0.889203
251 251 2 -4.45423 -2.94531 0.889203
252 252 2 -4.45423 -2.94531 0.889203
253 253 2 -4.45423 -2.94531 0.889203
254 254 2 -4.45423 -2.94531 0.889203
255 255 2 -4.45423 -2.94531 0.889203
256 256 2 -4.45423 -2.94531 0.889203
257 257 2 -4.45423 -2.94531 0.889203
258 258 2 -4.45423 -2.94531 0.889203
259 259 2 -4.45423 -2.94531 0.889203
260 260 2 -4.45423 -2.94531 0.889203
261 261 2 -4.45423 -2.94531 0.889203
262 262 2 -4.45423 -2.94531 0.889203
263 263 2 -4.45423 -2.94531 0.889203
264 264 2 -4.45423 -2.94531 0.889203
265 265 2 -4.45423 -2.94531 0.889203
266 266 2 -4.45423 -2.94531 0.889203
267 267 2 -4.45423 -2.94531 0.889203
268 268 2 -4.45423 -2.94531 0.889203
269 269 2 -4.45423 -2.94531 0.889203
270 270 2 -4.45423 -2.94531 0.889203
271 271 2 -4.45423 -2.94531 0.889203
272 272 2 -4.45423 -2.94531 0.889203
273 273 2 -4.45423 -2.94531 0.889203
274 274 2 -4.45423 -2.94531 0.889203
275 275 2 -4.45423 -2.94531 0.889203
276 276 2 -4.45423 -2.94531 0.889203
277 277 2 -4.45423 -2.94531 0.889203
278 278 2 -4.45423 -2.94531 0.889203
279 279 2 -4.45423 -2.94531 0.889203
280 280 2 -4.45423 -2.94531 0.889203
281 281 2 -4.45423 -2.94531 0.889203
282 282 2 -4.45423 -2.94531 0.889203
283 283 2 -4.45423 -2.94531 0.889203
284 284 2 -4.45423 -2.94531 0.889203
285 285 2 -4.45423 -2.94531 0.889203
286 286 2 -4.45423 -2.94531 0.889203
287 287 2 -4.45423 -2.94531 0.889203
288 288 2 -4.45423 -2.94531 0.889203
289 289 2 -4.45423 -2.94531 0.889203
290 290 2 -4.45423 -2.94531 0.889203
291 291 2 -4.45423 -2.94531 0.889203
292 292 2 -4.45423 -2.94531 0.889203
293 293 2 -4.45423 -2.94531 0.889203
294 294 2 -4.45423 -2.94531 0.889203
295 295 2 -4.45423 -2.94531 0.889203
296 296 2 -4.45423 -2.94531 0.889203
297 297 2 -4.45423 -2.94531 0.889203
298 298 2 -4.45423 -2.94531 0.889203
299 299 2 -4.45423 -2.94531 0.889203
300 300 2 -4.45423 -2.94531 0.889203
301 301 2 -4.45423 -2.94531 0.889203
302 302 2 -4.45423 -2.94531 0.889203
303 303 2 -4.45423 -2.94531 0.889203
304 304 2 -4.45423 -2.94531 0.889203
305 305 2 -4.45423 -2.94531 0.889203
306 306 2 -4.45423 -2.94531 0.889203
307 307 2 -4.45423 -2.94531 0.889203
308 308 2 -4.45423 -2.94531 0.889203
309 309 2 -4.45423 -2.94531 0.889203
310 310 2 -4.45423 -2.94531 0.889203
311 311 2 -4.45423 -2.94531 0.889203
312 312 2 -4.45423 -2.94531 0.889203
313 313 2 -4.45423 -2.94531 0.889203
314 314 2 -4.45423 -2.94531 0.889203
315 315 2 -4.45423 -2.94531 0.889203
316 316 2 -4.45423 -2.94531 0.889203
317 317 2 -4.45423 -2.94531 0.889203
318 318 2 -4.45423 -2.94531 0.889203
319 319 2 -4.45423 -2.94531 0.889203
320 320 2 -4.45423 -2.94531 0.889203
321 321 2 -4.45423 -2.94531 0.889203
322 322 2 -4.45423 -2.94531 0.889203
323 323 2 -4.45423 -2.94531 0.889203
324 324 2 -4.45423 -2.94531 0.889203
325 325 2 -4.45423 -2.94531 0.889203
326 326 2 -4.45423 -2.94531 0.889203
327 327 2 -4.45423 -2.94531 0.889203
328 328 2 -4.45423 -2.94531 0.889203
329 329 2 -4.45423 -2.94531 0.889203
330 330 2 -4.45423 -2.94531 0.889203
331 331 2 -4.45423 -2.94531 0.889203
332 332 2 -4.45423 -2.94531 0.889203
333 333 2 -4.45423 -2.94531 0.889203
334 334 2 -4.45423 -2.94531 0.889203
335 335 2 -4.45423 -2.94531 0.889203
336 336 2 -4.45423 -2.94531 0.889203
337 337 2 -4.45423 -2.94531 0.889203
338 338 2 -4.45423 -2.94531 0.889203
339 339 2 -4.45423 -2.94531 0.889203
340 340 2 -4.45423 -2.94531 0.889203
341 341 2 -4.45423 -2.94531 0.889203
342 342 2 -4.45423 -2.94531 0.889203
343 343 2 -4.45423 -2.94531 0.889203
344 344 2 -4.45423 -2.94531 0.889203
345 345 2 -4.45423 -2.94531 0.889203
346 346 2 -4.45423 -2.94531 0.889203
347 347 2 -4.45423 -2.94531 0.889203
348 348 2 -4.45423 -2.94531 0.889203
349 349 2 -4.45423 -2.94531 0.889203
350 350 2 -4.45423 -2.94531 0.889203
351 351 2 -4.45423 -2.94531 0.889203
352 352 2 -4.45423 -2.94531 0.889203
353 353 2 -4.45423 -2.94531 0.889203
354 354 2 -4.45423 -2.94531 0.889203
355 355 2 -4.45423 -2.94531 0.889203
356 356 2 -4.45423 -2.94531 0.889203
357 357 2 -4.45423 -2.94531 0.889203
358 358 2 -4.45423 -2.94531 0.889203
359 359 2 -4.45423 -2.94531 0.889203
360 360 2 -4.45423 -2.94531 0.889203
361 361 2 -4.45423 -2.94531 0.889203
362 362 2 -4.45423 -2.94531 0.889203
363 363 2 -4.45423 -2.94531 0.889203
364 364 2 -4.45423 -2.94531 0.889203
365 365 2 -4.45423 -2.94531 0.889203
366 366 2 -4.45423 -2.94531 0.889203
367 367 2 -4.45423 -2.94531 0.889203
368 368 2 -4.45423 -2.94531 0.889203
369 369 2 -4.45423 -2.94531 0.889203
370 370 2 -4.45423 -2.94531 0.889203
371 371 2 -4.45423 -2.94531 0.889203
372 372 2 -4.45423 -2.94531 0.889203
373 373 2 -4.45423 -2.94531 0.889203
374 374 2 -4.45423 -2.94531 0.889203
375 375 2 -4.45423 -2.94531 0.889203
376 376 2 -4.45423 -2.94531 0.889203
377 377 2 -4.45423 -2.94531 0.889203
378 378 2 -4.45423 -2.94531 0.889203
379 379 2 -4.45423 -2.94531 0.889203
380 380 2 -4.45423 -2.94531 0.889203
381 381 2 -4.45423 -2.94531 0.889203
382 382 2 -4.45423 -2.94531 0.889203
383 383 2 -4.45423 -2.94531 0.889203
384 384 2 -4.45423 -2.94531 0.889203
385 385 2 -4.45423 -2.94531 0.889203
386 386 2 -4.45423 -2.94531 0.889203
387 387 2 -4.45423 -2.94531 0.889203
388 388 2 -4.45423 -2.94531 0.889203
389 389 2 -4.45423 -2.94531 0.889203
390 390 2 -4.45423 -2.94531 0.889203
391 391 2 -4.45423 -2.94531 0.889203
392 392 2 -4.45423 -2.94531 0.889203
393 393 2 -4.45423 -2.94531 0.889203
394 394 2 -4.45423 -2.94531 0.889203
395 395 2 -4.45423 -2.94531 0.889203
396 396 2 -4.45423 -2.94531 0.889203
397 397 2 -4.45423 -2.94531 0.889203
398 398 2 -4.45423 -2.94531 0.889203
399 399 2 -4.45423 -2.94531 0.889203
400 400 2 -4.45423 -2.94531 0.889203
401 401 2 -4.45423 -2.94531 0.889203
402 402 2 -4.45423 -2.94531 0.889203
403 403 2 -4.45423 -2.94531 0.889203
404 404 2 -4.45423 -2.94531 0.889203
405 405 2 -4.45423 -2.94531 0.889203
406 406 2 -4.45423 -2.94531 0.889203
407 407 2 -4.45423 -2.94531 0.889203
408 408 2 -4.45423 -2.94531 0.889203
409 409 2 -4.45423 -2.94531 0.889203
410 410 2 -4.45423 -2.94531 0.889203
411 411 2 -4.45423 -2.94531 0.889203
412 412 2 -4.45423 -2.94531 0.889203
413 413 2 -4.45423 -2.94531 0.889203
414 414 2 -4.45423 -2.94531 0.889203
415 415 2 -4.45423 -2.94531 0.889203
416 416 2 -4.45423 -2.94531 0.889203
417 417 2 -4.45423 -2.94531 0.889203
418 418 2 -4.45423 -2.94531 0.889203
419 419 2 -4.45423 -2.94531 0.889203
420 420 2 -4.45423 -2.94531 0.889203
421 421 2 -4.45423 -2.94531 0.889203
422 422 2 -4.45423 -2.94531 0.889203
423 423 2 -4.45423 -2.94531 0.889203
424 424 2 -4.45423 -2.94531 0.889203
425 425 2 -4.45423 -2.94531 0.889203
426 426 2 -4.45423 -2.94531 0.889203
427 427 2 -4.45423 -2.94531 0.889203
428 428 2 -4.45423 -2.94531 0.889203
429 429 2 -4.45423 -2.94531 0.889203
430 430 2 -4.45423 -2.94531 0.889203
431 431 2 -4.45423 -2.94531 0.889203
432 432 2 -4.45423 -2.94531 0.889203
433 433 2 -4.45423 -2.94531 0.889203
434 434 2 -4.45423 -2.94531 0.889203
435 435 2 -4.45423 -2.94531 0.889203
436 436 2 -4.45423 -2.94531 0.889203
437 437 2 -4.45423 -2.94531 0.889203
438 438 2 -4.45423 -2.94531 0.889203
439 439 2 -4.45423 -2.94531 0.889203
440 440 2 -4.45423 -2.94531 0.889203
441 441 2 -4.45423 -2.94531 0.889203
442 442 2 -4.45423 -2.94531 0.889203
443 443 2 -4.45423 -2.94531 0.889203
444 444 2 -4.45423 -2.94531 0.889203
445 445 2 -4.45423 -2.94531 0.889203
446 446 2 -4.45423 -2.94531 0.889203
447 447 2 -4.45423 -2.94531 0.889203
448 448 2 -4.45423 -2.94531 0.889203
449 449 2 -4.45423 -2.94531 0.889203
450 450 2 -4.45423 -2.94531 0.889203
451 451 2 -4.45423 -2.94531 0.889203
452 452 2 -4.45423 -2.94531 0.889203
453 453 2 -4.45423 -2.94531 0.889203
454 454 2 -4.45423 -2.94531 0.889203
455 455 2 -4.45423 -2.94531 0.889203
456 456 2 -4.45423 -2.94531 0.889203
457 457 2 -4.45423 -2.94531 0.889203
458 458 2 -4.45423 -2.94531 0.889203
459 459 2 -4.45423 -2.94531 0.889203
460 460 2 -4.45423 -2.94531 0.889203
461 461 2 -4.45423 -2.94531 0.889203
462 462 2 -4.45423 -2.94531 0.889203
463 463 2 -4.45423 -2.94531 0.889203
464 464 2 -4.45423 -2.94531 0.889203
465 465 2 -4.45423 -2.94531 0.889203
466 466 2 -4.45423 -2.94531 0.889203
467 467 2 -4.45423 -2.94531 0.889203
468 468 2 -4.45423 -2.94531 0.889203
469 469 2 -4.45423 -2.94531 0.889203
470 470 2 -4.45423 -2.94531 0.889203
471 471 2 -4.45423 -2.94531 0.889203
472 472 2 -4.45423 -2.94531 0.889203
473 473 2 -4.45423 -2.94531 0.889203
474 474 2 -4.45423 -2.94531 0.889203
475 475 2 -4.45423 -2.94531 0.889203
476 476 2 -4.45423 -2.94531 0.889203
477 477 2 -4.45423 -2.94531 0.889203
478 478 2 -4.45423 -2.94531 0.889203
479 479 2 -4.45423 -2.94531 0.889203
480 480 2 -4.45423 -2.94531 0.889203
481 481 2 -4.45423 -2.94531 0.889203
482 482 2 -4.45423 -2.94531 0.889203
483 483 2 -4.45423 -2.94531 0.889203
484 484 2 -4.45423 -2.94531 0.889203
485 485 2 -4.45423 -2.94531 0.889203
486 486 2 -4.45423 -2.94531 0.889203
487 487 2 -4.45423 -2.94531 0.889203
488 488 2 -4.45423 -2.94531 0.889203
489 489 2 -4.45423 -2.94531 0.889203
490 490 2 -4.45423 -2.94531 0.889203
491 491 2 -4.45423 -2.94531 0.889203
492 492 2 -4.45423 -2.94531 0.889203
493 493 2 -4.45423 -2.94531 0.889203
494 494 2 -4.45423 -2.94531 0.889203
495 495 2 -4.45423 -2.94531 0.889203
496 496 2 -4.45423 -2.94531 0.889203
497 497 2 -4.45423 -2.94531 0.889203
498 498 2 -4.45423 -2.94531 0.889203
499 499 2 -4.45423 -2.94531 0.889203
500 500 2 -4.45423 -2.94531 0.889203
501 501 2 -4.45423 -2.94531 0.889203
502 502 2 -4.45423 -2.94531 0.889203
503 503 2 -4.45423 -2.94531 0.889203
504 504 2 -4.45423 -2.94531 0.889203
505 505 2 -4.45423 -2.94531 0.889203
506 506 2 -4.45423 -2.94531 0.889203
507 507 2 -4.45423 -2.94531 0.889203
508 508 2 -4.45423 -2.94531 0.889203
509 509 2 -4.45423 -2.94531 0.889203
510 510 2 -4.45423 -2.94531 0.889203
511 511 2 -4.45423 -2.94531 0.889203
512 512 2 -4.45423 -2.94531 0.889203
513 513 2 -4.45423 -2.94531 0.889203
514 514 2 -4.45423 -2.94531 0.889203
515 515 2 -4.45423 -2.94531 0.889203
516 516 2 -4.45423 -2.94531 0.889203
517 517 2 -4.45423 -2.94531 0.889203
518 518 2 -4.45423 -2.94531 0.889203
519 519 2 -4.45423 -2.94531 0.889203
520 520 2 -4.45423 -2.94531 0.889203
521 521 2 -4.45423 -2.94531 0.889203
522 522 2 -4.45423 -2.94531 0.889203
523 523 2 -4.45423 -2.94531 0.889203
524 524 2 -4.45423 -2.94531 0.889203
525 525 2 -4.45423 -2.94531 0.889203
526 526 2 -4.45423 -2.94531 0.889203
527 527 2 -4.45423 -2.94531 0.889203
528 528 2 -4.45423 -2.94531 0.889203
529 529 2 -4.45423 -2.94531 0.889203
530 530 2 -4.45423 -2.94531 0.889203
531 531 2 -4.45423 -2.94531 0.889203
532 532 2 -4.45423 -2.94531 0.889203
533 533 2 -4.45423 -2.94531 0.889203
534 534 2 -4.45423 -2.94531 0.889203
535 535 2 -4.45423 -2.94531 0.889203
536 536 2 -4.45423 -2.94531 0.889203
537 537 2 -4.45423 -2.94531 0.889203
538 538 2 -4.45423 -2.94531 0.889203
539 539 2 -4.45423 -2.94531 0.889203
540 540 2 -4.45423 -2.94531 0.889203
541 541 2 -4.45423 -2.94531 0.889203
542 542 2 -4.45423 -2.94531 0.889203
543 543 2 -4.45423 -2.94531 0.889203
544 544 2 -4.45423 -2.94531 0.889203
545 545 2 -4.45423 -2.94531 0.889203
546 546 2 -4.45423 -2.94531 0.889203
547 547 2 -4.45423 -2.94531 0.889203
548 548 2 -4.45423 -2.94531 0.889203
549 549 2 -4.45423 -2.94531 0.889203
550 550 2 -4.45423 -2.94531 0.889203
551 551 2 -4.45423 -2.94531 0.889203
552 552 2 -4.45423 -2.94531 0.889203
553 553 2 -4.45423 -2.94531 0.889203
554 554 2 -4.45423 -2.94531 0.889203
555 555 2 -4.45423 -2.94531 0.889203
556 556 2 -4.45423 -2.94531 0.889203
557 557 2 -4.45423 -2.94531 0.889203
558 558 2 -4.45423 -2.94531 0.889203
559 559 2 -4.45423 -2.94531 0.889203
560 560 2 -4.45423 -2.94531 0.889203
561 561 2 -4.45423 -2.94531 0.889203
562 562 2 -4.45423 -2.94531 0.889203
563 563 2 -4.45423 -2.94531 0.889203
564 564 2 -4.45423 -2.94531 0.889203
565 565 2 -4.45423 -2.94531 0.889203
566 566 2 -4.45423 -2.94531 0.889203
567 567 2 -4.45423 -2.94531 0.889203
568 568 2 -4.45423 -2.94531 0.889203
569 569 2 -4.45423 -2.94531 0.889203
570 570 2 -4.45423 -2.94531 0.889203
571 571 2 -4.45423 -2.94531 0.889203
572 572 2 -4.45423 -2.94531 0.889203
573 573 2 -4.45423 -2.94531 0.889203
574 574 2 -4.45423 -2.94531 0.889203
575 575 2 -4.45423 -2.94531 0.889203
576 576 2 -4.45423 -2.94531 0.889203
577 577 2 -4.45423 -2.94531 0.889203
578 578 2 -4.45423 -2.94531 0.889203
579 579 2 -4.45423 -2.94531 0.889203
580 580 2 -4.45423 -2.94531 0.889203
581 581 2 -4.45423 -2.94531 0.889203
582 582 2 -4.45423 -2.94531 0.889203
583 583 2 -4.45423 -2.94531 0.889203
584 584 2 -4.45423 -2.94531 0.889203
585 585 2 -4.45423 -2.94531 0.889203
586 586 2 -4.45423 -2.94531 0.889203
587 587 2 -4.45423 -2.94531 0.889203
588 588 2 -4.45423 -2.94531 0.889203
589 589 2 -4.45423 -2.94531 0.889203
590 590 2 -4.45423 -2.94531 0.889203
591 591 2 -4.45423 -2.94531 0.889203
592 592 2 -4.45423 -2.94531 0.889203
593 593 2 -4.45423 -2.94531 0.889203
594 594 2 -4.45423 -2.94531 0.889203
595 595 2 -4.45423 -2.94531 0.889203
596 596 2 -4.45423 -2.94531 0.889203
597 597 2 -4.45423 -2.94531 0.889203
598 598 2 -4.45423 -2.94531 0.889203
599 599 2 -4.45423 -2.94531 0.889203
600 600 2 -4.45423 -2.94531 0.889203
601 601 2 -4.45423 -2.94531 0.889203
602 602 2 -4.45423 -2.94531 0.889203
603 603 2 -4.45423 -2.94531 0.889203
604 604 2 -4.45423 -2.94531 0.889203
605 605 2 -4.45423 -2.94531 0.889203
606 606 2 -4.45423 -2.94531 0.889203
607 607 2 -4.45423 -2.94531 0.889203
608 608 2 -4.45423 -2.94531 0.889203
609 609 2 -4.45423 -2.94531 0.889203
610 610 2 -4.45423 -2.94531 0.889203
611 611 2 -4.45423 -2.94531 0.889203
612 612 2 -4.45423 -2.94531 0.889203
613 613 2 -4.45423 -2.94531 0.889203
614 614 2 -4.45423 -2.94531 0.889203
615 615 2 -4.45423 -2.94531 0.889203
616 616 2 -4.45423 -2.94531 0.889203
617 617 2 -4.45423 -2.94531 0.889203
618 618 2 -4.45423 -2.94531 0.889203
619 619 2 -4.45423 -2.94531 0.889203
620 620 2 -4.45423 -2.94531 0.889203
621 621 2 -4.45423 -2.94531 0.889203
622 622 2 -4.45423 -2.94531 0.889203
623 623 2 -4.45423 -2.94531 0.889203
624 624 2 -4.45423 -2.94531 0.889203
625 625 2 -4.45423 -2.94531 0.889203
626 626 2 -4.45423 -2.94531 0.889203
627 627 2 -4.45423 -2.94531 0.889203
628 628 2 -4.45423 -2.94531 0.889203
629 629 2 -4.45423 -2.94531 0.889203
630 630 2 -4.45423 -2.94531 0.889203
631 631 2 -4.45423 -2.94531 0.889203
632 632 2 -4.45423 -2.94531 0.889203
633 633 2 -4.45423 -2.94531 0.889203
634 634 2 -4.45423 -2.94531 0.889203
635 635 2 -4.45423 -2.94531 0.889203
636 636 2 -4.45423 -2.94531 0.889203
637 637 2 -4.45423 -2.94531 0.889203
638 638 2 -4.45423 -2.94531 0.889203
639 639 2 -4.45423 -2.94531 0.889203
640 640 2 -4.45423 -2.94531 0.889203
641 641 2 -4.45423 -2.94531 0.889203
642 642 2 -4.45423 -2.94531 0.889203
643 643 2 -4.45423 -2.94531 0.889203
644 644 2 -4.45423 -2.94531 0.889203
645 645 2 -4.45423 -2.94531 0.889203
646 646 2 -4.45423 -2.94531 0.889203
647 647 2 -4.45423 -2.94531 0.889203
648 648 2 -4.45423 -2.94531 0.889203
649 649 2 -4.45423 -2.94531 0.889203
650 650 2 -4.45423 -2.94531 0.889203
651 651 2 -4.45423 -2.94531 0.889203
652 652 2 -4.45423 -2.94531 0.889203
653 653 2 -4.45423 -2.94531 0.889203
654 654 2 -4.45423 -2.94531 0.889203
655 655 2 -4.45423 -2.94531 0.889203
656 656 2 -4.45423 -2.94531 0.889203
657 657 2 -4.45423 -2.94531 0.889203
658 658 2 -4.45423 -2.94531 0.889203
659 659 2 -4.45423 -2.94531 0.889203
660 660 2 -4.45423 -2.94531 0.889203
661 661 2 -4.45423 -2.94531 0.889203
662 662 2 -4.45423 -2.94531 0.889203
663 663 2 -4.45423 -2.94531 0.889203
664 664 2 -4.45423 -2.94531 0.889203
665 665 2 -4.45423 -2.94531 0.889203
666 666 2 -4.45423 -2.94531 0.889203
667 667 2 -4.45423 -2.94531 0.889203
668 668 2 -4.45423 -2.94531 0.889203
669 669 2 -4.45423 -2.94531 0.889203
670 670 2 -4.45423 -2.94531 0.889203
671 671 2 -4.45423 -2.94531 0.889203
672 672 2 -4.45423 -2.94531 0.889203
673 673 2 -4.45423 -2.94531 0.889203
674 674 2 -4.45423 -2.94531 0.889203
675 675 2 -4.45423 -2.94531 0.889203
676 676 2 -4.45423 -2.94531 0.889203
677 677 2 -4.45423 -2.94531 0.889203
678 678 2 -4.45423 -2.94531 0.889203
679 679 2 -4.45423 -2.94531 0.889203
680 680 2 -4.45423 -2.94531 0.889203
681 681 2 -4.45423 -2.94531 0.889203
682 682 2 -4.45423 -2.94531 0.889203
683 683 2 -4.45423 -2.94531 0.889203
684 684 2 -4.45423 -2.94531 0.889203
685 685 2 -4.45423 -2.94531 0.889203
686 686 2 -4.45423 -2.94531 0.889203
687 687 2 -4.45423 -2.94531 0.889203
688 688 2 -4.45423 -2.94531 0.889203
689 689 2 -4.45423 -2.94531 0.889203
690 690 2 -4.45423 -2.94531 0.889203
691 691 2 -4.45423 -2.94531 0.889203
692 692 2 -4.45423 -2.94531 0.889203
693 693 2 -4.45423 -2.94531 0.889203
694 694 2 -4.45423 -2.94531 0.889203
695 695 2 -4.45423 -2.94531 0.889203
696 696 2 -4.45423 -2.94531 0.889203
697 697 2 -4.45423 -2.94531 0.889203
698 698 2 -4.45423 -2.94531 0.889203
699 699 2 -4.45423 -2.94531 0.889203
700 700 2 -4.45423 -2.94531 0.889203
701 701 2 -4.45423 -2.94531 0.889203
702 702 2 -4.45423 -2.94531 0.889203
703 703 2 -4.45423 -2.94531 0.889203
704 704 2 -4.45423 -2.94531 0.889203
705 705 2 -4.45423 -2.94531 0.889203
706 706 2 -4.45423 -2.94531 0.889203
707 707 2 -4.45423 -2.94531 0.889203
708 708 2 -4.45423 -2.94531 0.889203
709 709 2 -4.45423 -2.94531 0.889203
710 710 2 -4.45423 -2.94531 0.889203
711 711 2 -4.45423 -2.94531 0.889203
712 712 2 -4.45423 -2.94531 0.889203
713 713 2 -4.45423 -2.94531 0.889203
714 714 2 -4.45423 -2.94531 0.889203
715 715 2 -4.45423 -2.94531 0.889203
716 716 2 -4.45423 -2.94531 0.889203
717 717 2 -4.45423 -2.94531 0.889203
718 718 2 -4.45423 -2.94531 0.889203
719 719 2 -4.45423 -2.94531 0.889203
720 720 2 -4.45423 -2.94531 0.889203
721 721 2 -4.45423 -2.94531 0.889203
722 722 2 -4.45423 -2.94531 0.889203
723 723 2 -4.45423 -2.94531 0.889203
724 724 2 -4.45423 -2.94531 0.889203
725 725 2 -4.45423 -2.94531 0.889203
726 726 2 -4.45423 -2.94531 0.889203
727 727 2 -4.45423 -2.94531 0.889203
728 728 2 -4.45423 -2.94531 0.889203
729 729 2 -4.45423 -2.94531 0.889203
730 730 2 -4.45423 -2.94531 0.889203
731 731 2 -4.45423 -2.94531 0.889203
732 732 2 -4.45423 -2.94531 0.889203
733 733 2 -4.45423 -2.94531 0.889203
734 734 2 -4.45423 -2.94531 0.889203
735 735 2 -4.45423 -2.94531 0.889203
736 736 2 -4.45423 -2.94531 0.889203
737 737 2 -4.45423 -2.94531 0.889203
738 738 2 -4.45423 -2.94531 0.889203
739 739 2 -4.45423 -2.94531 0.889203
740 740 2 -4.45423 -2.94531 0.889203
741 741 2 -4.45423 -2.94531 0.889203
742 742 2 -4.45423 -2.94531 0.889203
743 743 2 -4.45423 -2.94531 0.889203
744 744 2 -4.45423 -2.94531 0.889203
745 745 2 -4.45423 -2.94531 0.889203
746 746 2 -4.45423 -2.94531 0.889203
747 747 2 -4.45423 -2.94531 0.889203
748 748 2 -4.45423 -2.94531 0.889203
749 749 2 -4.45423 -2.94531 0.889203
750 750 2 -4.45423 -2.94531 0.889203
751 751 2 -4.45423 -2.94531 0.889203
752 752 2 -4.45423 -2.94531 0.889203
753 753 2 -4.45423 -2.94531 0.889203
754 754 2 -4.45423 -2.94531 0.889203
755 755 2 -4.45423 -2.94531 0.889203
756 756 2 -4.45423 -2.94531 0.889203
757 757 2 -4.45423 -2.94531 0.889203
758 758 2 -4.45423 -2.94531 0.889203
759 759 2 -4.45423 -2.94531 0.889203
760 760 2 -4.45423 -2.94531 0.889203
761 761 2 -4.45423 -2.94531 0.889203
762 762 2 -4.45423 -2.94531 0.889203
763 763 2 -4.45423 -2.94531 0.889203
764 764 2 -4.45423 -2.94531 0.889203
765 765 2 -4.45423 -2.94531 0.889203
766 766 2 -4.45423 -2.94531 0.889203
767 767 2 -4.45423 -2.94531 0.889203
768 768 2 -4.45423 -2.94531 0.889203
769 769 2 -4.45423 -2.94531 0.889203
770 770 2 -4.45423 -2.94531 0.889203
771 771 2 -4.45423 -2.94531 0.889203
772 772 2 -4.45423 -2.94531 0.889203
773 773 2 -4.45423 -2.94531 0.889203
774 774 2 -4.45423 -2.94531 0.889203
775 775 2 -4.45423 -2.94531 0.889203
776 776 2 -4.45423 -2.94531 0.889203
777 777 2 -4.45423 -2.94531 0.889203
778 778 2 -4.45423 -2.94531 0.889203
779 779 2 -4.45423 -2.94531 0.889203
780 780 2 -4.45423 -2.94531 0.889203
781 781 2 -4.45423 -2.94531 0.889203
782 782 2 -4.45423 -2.94531 0.889203
783 783 2 -4.45423 -2.94531 0.889203
784 784 2 -4.45423 -2.94531 0.889203
785 785 2 -4.45423 -2.94531 0.889203
786 786 2 -4.45423 -2.94531 0.889203
787 787 2 -4.45423 -2.94531 0.889203
788 788 2 -4.45423 -2.94531 0.889203
789 789 2 -4.45423 -2.94531 0.889203
790 790 2 -4.45423 -2.94531 0.889203
791 791 2 -4.45423 -2.94531 0.889203
792 792 2 -4.45423 -2.94531 0.889203
793 793 2 -4.45423 -2.94531 0.889203
794 794 2 -4.45423 -2.94531 0.889203
795 795 2 -4.45423 -2.94531 0.889203
796 796 2 -4.45423 -2.94531 0.889203
797 797 2 -4.45423 -2.94531 0.889203
798 798 2 -4.45423 -2.94531 0.889203
799 799 2 -4.45423 -2.94531 0.889203
800 800 2 -4.45423 -2.94531 0.889203
801 801 2 -4.45423 -2.94531 0.889203
802 802 2 -4.45423 -2.94531 0.889203
803 803 2 -4.45423 -2.94531 0.889203
804 804 2 -4.45423 -2.94531 0.889203
805 805 2 -4.45423 -2.94531 0.889203
806 806 2 -4.45423 -2.94531 0.889203
807 807 2 -4.45423 -2.94531 0.889203
808 808 2 -4.45423 -2.94531 0.889203
809 809 2 -4.45423 -2.94531 0.889203
810 810 2 -4.45423 -2.94531 0.889203
811 811 2 -4.45423 -2.94531 0.889203
812 812 2 -4.45423 -2.94531 0.889203
813 813 2 -4.45423 -2.94531 0.889203
814 814 2 -4.45423 -2.94531 0.889203
815 815 2 -4.45423 -2.94531 0.889203
816 816 2 -4.45423 -2.94531 0.889203
817 817 2 -4.45423 -2.94531 0.889203