ITEM: TIMESTEP
0
ITEM: NUMBER OF ATOMS
2400
ITEM: BOX BOUNDS pp pp ff
-10 10
-10 10
0 10000
ITEM: ATOMS id type xs ys zs
1 1 0 0 0
2 2 0.020926 0.0092415 8.89203e-05
3 1 0 0.05 0
4 1 0 0.1 0
5 1 0 0.15 0
6 2 0.020926 0.159242 8.89203e-05
7 2 0.015858 0.112375 0.000122254
8 2 0.0220585 0.0660605 8.66687e-05
9 1 0 0.2 0
10 2 0.020926 0.209241 8.89203e-05
11 2 0.0418515 0.218484 0.000177841
12 2 0.99828 0.234486 0.000215018
13 2 0.96935 0.274956 0.000204978
14 1 0 0.25 0
15 1 0 0.3 0
16 2 0.0171925 0.282004 8.67311e-05
17 2 0.0549255 0.297589 0.000144466
18 2 0.0748285 0.325514 7.16912e-05
19 1 0 0.35 0
20 2 0.0171925 0.332005 8.67311e-05
21 1 0 0.4 0
22 2 0.013624 0.394227 9.55209e-05
23 2 0.0520445 0.378642 0.000151413
24 2 0.030901 0.422756 0.000172094
25 2 0.99317 0.393342 0.000201148
26 2 0.94317 0.393342 0.000202357
27 1 0 0.45 0
28 1 0 0.5 0
29 2 0.0062005 0.482769 9.30517e-05
30 2 0.985055 0.474036 0.000181972
31 2 0.957875 0.510168 0.000224656
32 2 0.952805 0.463301 0.000257989
33 2 0.91546 0.446808 0.000315724
34 2 0.91999 0.398869 0.000342661
35 2 0.966915 0.394369 0.000375995
36 2 0.966915 0.444365 0.000377204
37 2 0.9442 0.4471 0.000466125
38 2 0.899005 0.438367 0.000427093
39 2 0.86127 0.467421 0.000396624
40 2 0.830465 0.480512 0.000470912
41 2 0.8486 0.466568 0.000559832
42 2 0.87688 0.504282 0.000593165
43 2 0.904935 0.525186 0.000664603
44 2 0.91856 0.477247 0.000656531
45 2 0.92476 0.495599 0.00056434
46 2 0.93096 0.51395 0.000472149
47 2 0.944585 0.561777 0.00048254
48 2 0.953575 0.540741 0.00057146
49 2 0.969615 0.503199 0.000513725
50 2 0.0073465 0.532613 0.000484671
51 2 0.003263 0.55529 0.000395922
52 2 0.98212 0.510939 0.000377382
53 2 0.029045 0.506438 0.000410716
54 2 0.0255935 0.518609 0.000507462
55 2 0.064014 0.503024 0.000563354
56 2 0.042871 0.494292 0.000652275
57 2 0.0665655 0.527537 0.00071001
58 2 0.03576 0.540628 0.000784297
59 2 0.0542815 0.497278 0.00081763
60 2 0.026802 0.512863 0.000895142
61 2 0.03579 0.491827 0.000984062
62 2 0.0312795 0.524931 0.00105846
63 2 0.0790495 0.539134 0.00105039
64 1 0 0.55 0
65 1 0 0.6 0
66 1 0 0.65 0
67 2 0.0062005 0.632769 9.30517e-05
68 2 0.98977 0.6795 0.000106654
69 2 0.97499 0.727095 9.85814e-05
70 2 0.018112 0.746139 0.000131915
71 2 0.015653 0.723396 0.000220835
72 2 0.018662 0.678665 0.00026511
73 2 0.973465 0.669933 0.000226078
74 1 0 0.7 0
75 1 0 0.75 0
76 2 0.00121 0.75 9.99707e-05
77 1 0 0.8 0
78 2 0.00121 0.8 9.99707e-05
79 2 0.0101975 0.778964 0.000188891
80 1 0 0.85 0
81 2 0.020926 0.859241 8.89203e-05
82 1 0 0.9 0
83 1 0 0.95 0
84 2 0.008988 0.928964 8.89203e-05
85 2 0.0065285 0.906221 0.000177841
86 2 0.997035 0.927033 0.000266761
87 2 0.01796 0.936275 0.000355681
88 2 0.055693 0.965689 0.000326627
89 2 0.0873885 0.97878 0.000253852
90 2 0.055025 0.00853 0.00020621
91 1 0.05 0 0
92 2 0.058988 0.978965 8.89203e-05
93 2 0.0565285 0.95622 0.000177841
94 2 0.0204725 0.977125 0.000233086
95 2 0.0258425 0.0055 0.000314719
96 2 0.0088985 0.0426425 0.000256984
97 2 0.97213 0.0557335 0.000194479
98 2 0.92856 0.071736 0.000231656
99 2 0.901375 0.107868 0.00027434
100 2 0.857805 0.12387 0.000311518
101 2 0.83666 0.167984 0.000332198
102 2 0.879785 0.18703 0.000365532
103 2 0.898305 0.14368 0.000398865
104 2 0.93604 0.114626 0.000429334
105 2 0.93358 0.091883 0.000518254
106 2 0.912435 0.08315 0.000607174
107 2 0.87509 0.066657 0.000664909
108 2 0.844285 0.079748 0.000739197
109 2 0.8171 0.05797 0.000810939
110 2 0.79596 0.102084 0.000831619
111 2 0.768775 0.138216 0.000874304
112 2 0.782395 0.132443 0.000969824
113 2 0.750035 0.157328 0.00102756
114 2 0.756235 0.140097 0.00112061
115 2 0.73509 0.131365 0.00120953
116 2 0.71905 0.168906 0.00126727
117 1 0.05 0.05 0
118 1 0.05 0.1 0
119 1 0.05 0.15 0
120 1 0.05 0.2 0
121 2 0.070926 0.209241 8.89203e-05
122 2 0.109346 0.193657 0.000144812
123 1 0.05 0.25 0
124 1 0.05 0.3 0
125 1 0.05 0.35 0
126 1 0.05 0.4 0
127 1 0.05 0.45 0
128 1 0.05 0.5 0
129 2 0.040506 0.520812 8.89203e-05
130 2 0.072201 0.506845 0.00016104
131 2 0.036145 0.527748 0.000216286
132 2 0.064202 0.548652 0.000287724
133 2 0.111972 0.562855 0.000279652
134 2 0.0892605 0.565588 0.000368572
135 2 0.0696955 0.608478 0.000401905
136 2 0.0906215 0.617719 0.000490825
137 2 0.127992 0.633332 0.000549468
138 2 0.165505 0.646423 0.000610175
139 2 0.121935 0.662426 0.000647352
140 2 0.11244 0.683238 0.000736273
141 2 0.150174 0.712652 0.000707219
142 2 0.150174 0.712652 0.000607219
143 2 0.178455 0.750367 0.000640552
144 2 0.221577 0.769412 0.000673886
145 2 0.222786 0.769412 0.000773856
146 2 0.195602 0.805543 0.00081654
147 2 0.232947 0.822037 0.000758805
148 2 0.239147 0.868768 0.000792139
149 2 0.267204 0.889671 0.000863577
150 2 0.25026 0.926814 0.000805842
151 2 0.232023 0.908818 0.000719968
152 2 0.245648 0.913434 0.000624196
153 2 0.202077 0.931828 0.000591743
154 2 0.18384 0.913832 0.000505869
155 2 0.215536 0.877943 0.000477064
156 2 0.216745 0.877943 0.000577035
157 2 0.255165 0.862359 0.000632927
158 1 0.05 0.55 0
159 2 0.053009 0.572677 8.89203e-05
160 2 0.0542185 0.572677 0.000188891
161 1 0.05 0.6 0
162 1 0.05 0.65 0
163 2 0.040506 0.670813 8.89203e-05
164 2 0.0494935 0.649777 0.000177841
165 2 0.0872265 0.620723 0.000208309
166 2 0.058818 0.605138 0.000284468
167 2 0.0152475 0.587142 0.000317802
168 2 0.97005 0.57841 0.00027877
169 2 0.92648 0.594412 0.000315947
170 2 0.94638 0.622337 0.000243172
171 2 0.983895 0.635428 0.00030388
172 2 0.961185 0.638162 0.0003928
173 2 0.917615 0.620167 0.000426133
174 2 0.923815 0.602936 0.000519185
175 2 0.880245 0.58494 0.000552518
176 2 0.83283 0.569585 0.000544446
177 2 0.847065 0.538386 0.000471671
178 2 0.884795 0.567801 0.000442617
179 2 0.890995 0.521487 0.000407032
180 2 0.890995 0.521487 0.000307032
181 1 0.05 0.7 0
182 1 0.05 0.75 0
183 2 0.05121 0.75 9.99707e-05
184 1 0.05 0.8 0
185 1 0.05 0.85 0
186 1 0.05 0.9 0
187 2 0.063624 0.894226 9.55209e-05
188 1 0.05 0.95 0
189 1 0.1 0 0
190 1 0.1 0.05 0
191 2 0.090506 0.0708125 8.89203e-05
192 2 0.0917155 0.0708125 0.000188891
193 2 0.06091 0.0839035 0.000263178
194 2 0.0836815 0.0817195 0.000352099
195 2 0.130606 0.077219 0.000385432
196 2 0.16834 0.062337 0.00032696
197 2 0.200035 0.0264485 0.000298154
198 2 0.237548 0.0395395 0.000358862
199 2 0.214837 0.042274 0.000447782
200 2 0.209467 0.069654 0.000530764
201 2 0.165897 0.0856565 0.000567941
202 2 0.183089 0.0676605 0.000654673
203 2 0.161946 0.111775 0.000675353
204 2 0.145515 0.158506 0.000688956
205 2 0.10946 0.179409 0.000744201
206 2 0.112468 0.134678 0.000788476
207 2 0.074735 0.105264 0.00081753
208 2 0.075945 0.105264 0.000917501
209 2 0.061165 0.152859 0.000909428
210 2 0.023432 0.181913 0.000878959
211 2 0.002289 0.17318 0.00096788
212 2 0.0112765 0.152143 0.0010568
213 2 0.054431 0.134148 0.00102137
214 2 0.058959 0.0862095 0.0010483
215 2 0.105884 0.081709 0.00108164
216 2 0.107094 0.081709 0.00118161
217 2 0.0762885 0.0948 0.0012559
218 2 0.09906 0.092616 0.00134482
219 2 0.116004 0.055473 0.00140255
220 2 0.153736 0.0405915 0.00134408
221 2 0.153736 0.0405915 0.00124408
222 2 0.172258 0.99724 0.00127741
223 2 0.185882 0.949305 0.00126934
224 2 0.158697 0.970205 0.00119656
225 2 0.187106 0.98579 0.00112041
226 2 0.141908 0.97706 0.00108137
227 2 0.1664 0.009721 0.00102364
228 2 0.201777 0.0306245 0.000966664
229 2 0.219912 0.01668 0.00105558
230 2 0.233536 0.0109065 0.00115111
231 2 0.283502 0.0109065 0.00114748
232 2 0.281043 0.988165 0.0012364
233 1 0.1 0.1 0
234 1 0.1 0.15 0
235 2 0.108988 0.128964 8.89203e-05
236 2 0.0815085 0.144549 0.000166432
237 2 0.0540295 0.160134 0.000243943
238 2 0.0088315 0.151401 0.000204912
239 2 0.9711 0.121986 0.000233965
240 2 0.98804 0.084844 0.0002917
241 2 0.994245 0.131575 0.000325034
242 2 8.45e-05 0.130721 0.000424334
243 2 0.96235 0.159775 0.000393865
244 2 0.935165 0.195908 0.00043655
245 2 0.936375 0.195908 0.00053652
246 2 0.89903 0.179415 0.000594255
247 2 0.930725 0.165447 0.000666375
248 2 0.935255 0.117509 0.000693312
249 2 0.97277 0.130599 0.00075402
250 2 0.005132 0.105714 0.000696285
251 2 0.0081405 0.150968 0.000654188
252 2 0.0454855 0.167461 0.000596453
253 2 0.0901985 0.158728 0.00063766
254 2 0.104431 0.127529 0.000564885
255 2 0.0730615 0.113675 0.00049211
256 2 0.0384655 0.149443 0.00050186
257 2 0.055056 0.196174 0.000489057
258 2 0.102826 0.210377 0.000480984
259 2 0.11645 0.258203 0.000491374
260 2 0.148145 0.29443 0.000518435
261 2 0.100732 0.279075 0.000510362
262 2 0.073548 0.315207 0.000553046
263 2 0.0299775 0.333601 0.000520593
264 2 0.05766 0.313361 0.000447818
265 1 0.1 0.2 0
266 1 0.1 0.25 0
267 1 0.1 0.3 0
268 1 0.1 0.35 0
269 1 0.1 0.4 0
270 1 0.1 0.45 0
271 2 0.108988 0.428964 8.89203e-05
272 2 0.108988 0.427754 0.000188891
273 2 0.111997 0.450431 0.000277811
274 2 0.109538 0.427688 0.000366732
275 2 0.100043 0.448501 0.000455652
276 2 0.105885 0.447647 0.000554952
277 2 0.150305 0.470324 0.000547859
278 2 0.182001 0.50655 0.000574919
279 2 0.154816 0.542682 0.000617604
280 2 0.19233 0.555773 0.000678311
281 2 0.165145 0.591905 0.000720995
282 2 0.193202 0.612809 0.000792433
283 2 0.199403 0.595577 0.000885485
284 2 0.179838 0.638466 0.000918818
285 2 0.158695 0.629734 0.00100774
286 2 0.152093 0.676465 0.000974715
287 2 0.114748 0.659972 0.00103245
288 2 0.108146 0.706702 0.000999427
289 2 0.108146 0.706702 0.000899427
290 2 0.118554 0.75544 0.000891354
291 2 0.101611 0.792582 0.000833619
292 2 0.133306 0.805674 0.000760844
293 2 0.119784 0.757735 0.000769574
294 2 0.119784 0.757735 0.000669574
295 2 0.082051 0.728321 0.000698627
296 2 0.077967 0.750998 0.000609879
297 2 0.105446 0.735413 0.000532367
298 1 0.1 0.5 0
299 1 0.1 0.55 0
300 1 0.1 0.6 0
301 1 0.1 0.65 0
302 1 0.1 0.7 0
303 2 0.0975405 0.677257 8.89203e-05
304 2 0.103741 0.723988 0.000122254
305 2 0.142162 0.708403 0.000178146
306 2 0.113753 0.692819 0.000254305
307 2 0.116762 0.648087 0.00029858
308 2 0.0807055 0.668991 0.000353825
309 2 0.11822 0.682082 0.000414533
310 2 0.097076 0.673349 0.000503453
311 2 0.0610205 0.694252 0.000558699
312 2 0.0404475 0.666817 0.000485924
313 2 0.0132625 0.645039 0.000557666
314 2 0.044958 0.609151 0.000528861
315 2 0.0238145 0.618957 0.000440389
316 2 0.980245 0.600961 0.000473722
317 2 0.0126075 0.571209 0.000521365
318 1 0.1 0.75 0
319 1 0.1 0.8 0
320 1 0.1 0.85 0
321 2 0.108988 0.828964 8.89203e-05
322 2 0.0954655 0.781026 9.76499e-05
323 2 0.05941 0.801929 0.000152896
324 2 0.0969235 0.81502 0.000213603
325 2 0.143849 0.810519 0.000246937
326 2 0.116664 0.846651 0.000289621
327 2 0.125652 0.825615 0.000378541
328 2 0.0948465 0.838706 0.000452828
329 2 0.0993745 0.790767 0.000479765
330 2 0.0951735 0.742829 0.000452617
331 2 0.0499755 0.734097 0.000413585
332 2 0.0816705 0.747187 0.00034081
333 2 0.099805 0.762203 0.000252591
334 2 0.0554835 0.78488 0.000261832
335 2 0.053024 0.762137 0.000350752
336 2 0.0318805 0.753404 0.000439672
337 2 0.007705 0.756913 0.000526924
338 2 0.98052 0.777817 0.000454149
339 2 0.96448 0.815358 0.000511884
340 2 0.943335 0.806625 0.000600804
341 2 0.899015 0.829303 0.000610045
342 2 0.91264 0.833919 0.000514273
343 2 0.885455 0.87005 0.000556957
344 2 0.9228 0.886544 0.000499222
345 2 0.946495 0.919789 0.000556957
346 2 0.98187 0.940692 0.000499982
347 2 0.013566 0.926724 0.000572103
348 2 0.041975 0.942309 0.000495943
349 2 0.037774 0.89437 0.000468795
350 2 0.073151 0.915274 0.000411821
351 2 0.0793515 0.86896 0.000376236
352 2 0.040931 0.884545 0.000320344
353 1 0.1 0.9 0
354 2 0.117192 0.882005 8.67311e-05
355 2 0.107699 0.902817 0.000175651
356 2 0.098204 0.923629 0.000264572
357 1 0.1 0.95 0
358 2 0.10121 0.95 9.99707e-05
359 1 0.15 0 0
360 1 0.15 0.05 0
361 2 0.140506 0.0708125 8.89203e-05
362 1 0.15 0.1 0
363 1 0.15 0.15 0
364 1 0.15 0.2 0
365 2 0.156201 0.182769 9.30517e-05
366 2 0.184258 0.203673 0.00016449
367 2 0.156779 0.219257 0.000242001
368 2 0.125973 0.232348 0.000316289
369 2 0.15403 0.253252 0.000387727
370 2 0.185725 0.289478 0.000414787
371 2 0.217421 0.325705 0.000441847
372 2 0.196277 0.369818 0.000462528
373 2 0.152706 0.351823 0.000495862
374 2 0.158 0.387591 0.000564931
375 2 0.174944 0.350448 0.000622666
376 2 0.177953 0.373125 0.000711586
377 2 0.225723 0.387328 0.000703514
378 2 0.231923 0.370097 0.000796565
379 2 0.194578 0.353604 0.0008543
380 2 0.208811 0.322405 0.000781525
381 2 0.224851 0.284863 0.00072379
382 2 0.256546 0.321089 0.000750851
383 1 0.15 0.25 0
384 2 0.153009 0.272677 8.89203e-05
385 2 0.103013 0.272677 9.01301e-05
386 2 0.125784 0.270493 0.00017905
387 2 0.0822135 0.252497 0.000212384
388 2 0.085222 0.275174 0.000301304
389 2 0.047489 0.24576 0.000330358
390 2 0.050498 0.201029 0.000374632
391 2 0.034458 0.238571 0.000432368
392 2 0.072191 0.267985 0.000403314
393 2 0.034458 0.2524 0.000345579
394 2 0.996725 0.281454 0.00031511
395 2 0.03407 0.297947 0.000257375
396 2 0.017126 0.33509 0.00019964
397 2 0.994415 0.337824 0.00028856
398 2 0.011607 0.319829 0.000375291
399 1 0.15 0.3 0
400 1 0.15 0.35 0
401 1 0.15 0.4 0
402 2 0.170926 0.409242 8.89203e-05
403 1 0.15 0.45 0
404 1 0.15 0.5 0
405 2 0.156201 0.482769 9.30517e-05
406 2 0.123837 0.507655 0.000150787
407 2 0.146609 0.505471 0.000239707
408 1 0.15 0.55 0
409 2 0.156201 0.532769 9.30517e-05
410 2 0.187895 0.518802 0.000165172
411 2 0.182828 0.471934 0.000198505
412 2 0.206522 0.505179 0.00025624
413 2 0.186958 0.548068 0.000289573
414 2 0.164246 0.550802 0.000378494
415 2 0.161787 0.528059 0.000467414
416 2 0.148264 0.480121 0.000476144
417 2 0.179959 0.493212 0.000403369
418 2 0.143191 0.506303 0.000340864
419 2 0.112385 0.519394 0.000415151
420 2 0.112385 0.518184 0.000515122
421 2 0.097606 0.565778 0.000507049
422 2 0.126015 0.581364 0.00043089
423 2 0.169137 0.600408 0.000464223
424 2 0.163767 0.559938 0.000521958
425 2 0.180358 0.606669 0.000509155
426 2 0.186558 0.589438 0.000602207
427 2 0.22968 0.608483 0.00063554
428 2 0.21364 0.646024 0.000693275
429 2 0.17007 0.662027 0.000730452
430 1 0.15 0.6 0
431 2 0.128857 0.591268 8.89203e-05
432 2 0.126397 0.568524 0.000177841
433 1 0.15 0.65 0
434 2 0.163624 0.644227 9.55209e-05
435 2 0.132819 0.657317 0.000169808
436 1 0.15 0.7 0
437 1 0.15 0.75 0
438 1 0.15 0.8 0
439 1 0.15 0.85 0
440 1 0.15 0.9 0
441 1 0.15 0.95 0
442 2 0.163624 0.944226 9.55209e-05
443 2 0.136439 0.980359 0.000138205
444 2 0.160706 0.02394 0.000145105
445 2 0.113293 0.008585 0.000137033
446 2 0.116302 0.03126 0.000225953
447 2 0.113842 0.00852 0.000314873
448 2 0.070272 0.02452 0.000352051
449 2 0.0430875 0.060655 0.000394735
450 2 0.0053545 0.03124 0.000423788
451 2 0.0111965 0.030385 0.000523089
452 2 0.0157245 0.982447 0.000550026
453 2 0.97967 0.00335 0.000605271
454 2 0.0171825 0.01644 0.000665979
455 2 0.034126 0.979299 0.000723714
456 2 0.0483585 0.948099 0.000650939
457 2 0.076041 0.927859 0.000578164
458 2 0.103521 0.912275 0.000500653
459 2 0.131929 0.927859 0.000424494
460 2 0.104745 0.948763 0.000351719
461 1 0.2 0 0
462 1 0.2 0.05 0
463 2 0.203009 0.072677 8.89203e-05
464 2 0.17553 0.0882615 0.000166432
465 2 0.148051 0.103847 0.000243943
466 1 0.2 0.1 0
467 1 0.2 0.15 0
468 2 0.206201 0.132769 9.30517e-05
469 1 0.2 0.2 0
470 1 0.2 0.25 0
471 2 0.2 0.24879 9.99707e-05
472 2 0.2 0.298787 0.000101181
473 2 0.177289 0.301521 0.000190101
474 2 0.14888 0.285936 0.00026626
475 2 0.129314 0.328825 0.000299593
476 2 0.142938 0.376652 0.000309983
477 2 0.105593 0.360159 0.000367718
478 2 0.08445 0.369965 0.000279247
479 2 0.0536445 0.383055 0.000353534
480 2 0.0401715 0.41459 0.000280759
481 2 0.0174595 0.417324 0.00036968
482 2 0.0186695 0.417324 0.00046965
483 2 0.014159 0.450428 0.000544049
484 2 0.017168 0.405697 0.000588324
485 2 0.969755 0.390342 0.000580251
486 2 0.931335 0.405927 0.000524359
487 2 0.90415 0.370322 0.000479939
488 2 0.88144 0.373056 0.000568859
489 2 0.92615 0.364324 0.000610066
490 2 0.921085 0.317456 0.0006434
491 2 0.92409 0.340133 0.00073232
492 2 0.90931 0.387728 0.000724247
493 2 0.87089 0.403313 0.000668355
494 1 0.2 0.3 0
495 1 0.2 0.35 0
496 2 0.2 0.34879 9.99707e-05
497 2 0.150004 0.34879 0.000101181
498 2 0.122525 0.364375 0.000178692
499 2 0.167237 0.355642 0.0002199
500 2 0.211658 0.378319 0.000212807
501 2 0.190515 0.422433 0.000233487
502 2 0.188055 0.39969 0.000322408
503 2 0.178561 0.420503 0.000411328
504 2 0.199487 0.429744 0.000500248
505 2 0.23722 0.445329 0.000557983
506 2 0.25381 0.49206 0.00054518
507 1 0.2 0.4 0
508 1 0.2 0.45 0
509 2 0.20121 0.45 9.99707e-05
510 2 0.232905 0.486226 0.000127031
511 2 0.260962 0.50713 0.000198469
512 2 0.289019 0.528033 0.000269907
513 2 0.269454 0.570922 0.000303241
514 2 0.233399 0.591825 0.000358486
515 2 0.217358 0.629367 0.000416221
516 2 0.254872 0.642458 0.000476929
517 2 0.233729 0.686572 0.00049761
518 2 0.20625 0.702157 0.000575121
519 2 0.237945 0.738383 0.000602182
520 2 0.251569 0.73261 0.000697703
521 2 0.280826 0.757495 0.000761726
522 2 0.283834 0.780172 0.000850646
523 2 0.24649 0.763679 0.000908381
524 2 0.24403 0.740935 0.000997301
525 2 0.269774 0.698209 0.00100413
526 2 0.251537 0.680213 0.000918257
527 2 0.254546 0.635482 0.000962531
528 2 0.299259 0.626749 0.00100374
529 2 0.32203 0.624565 0.00109266
530 2 0.32203 0.674562 0.00109387
531 2 0.328231 0.657331 0.00118692
532 2 0.300751 0.672915 0.00126443
533 2 0.279608 0.628564 0.00124589
534 2 0.241875 0.59915 0.00127495
535 2 0.243085 0.59915 0.00137492
536 2 0.214676 0.583565 0.00145108
537 2 0.209306 0.543095 0.00150881
538 2 0.247039 0.528213 0.00145034
539 2 0.267965 0.537455 0.00153926
540 2 0.281589 0.531682 0.00163478
541 2 0.272095 0.552494 0.0017237
542 2 0.258572 0.504556 0.00173243
543 2 0.221804 0.517647 0.00166992
544 2 0.249486 0.497407 0.00159715
545 2 0.202074 0.482053 0.00158908
546 2 0.157752 0.50473 0.00159832
547 2 0.160761 0.483135 0.00150833
548 2 0.123028 0.512189 0.00147786
549 2 0.101885 0.521995 0.00138939
550 2 0.0858445 0.559536 0.00144712
551 2 0.0422745 0.543089 0.00141073
552 2 0.038823 0.55526 0.00150747
553 2 0.0554135 0.60199 0.00149467
554 2 0.0327015 0.604725 0.00158359
555 2 0.0018965 0.617816 0.00165788
556 2 0.980755 0.609083 0.0017468
557 2 0.986955 0.562769 0.00171121
558 2 0.93954 0.547414 0.00170314
559 2 0.89274 0.553049 0.00173648
560 2 0.84274 0.553049 0.00173769
561 2 0.8216 0.562855 0.00164921
562 2 0.794415 0.541077 0.00172096
563 2 0.82611 0.505189 0.00169215
564 1 0.2 0.5 0
565 1 0.2 0.55 0
566 2 0.203009 0.572677 8.89203e-05
567 2 0.20921 0.619408 0.000122254
568 1 0.2 0.6 0
569 1 0.2 0.65 0
570 1 0.2 0.7 0
571 1 0.2 0.75 0
572 1 0.2 0.8 0
573 2 0.213624 0.794227 9.55209e-05
574 2 0.166212 0.778872 8.74482e-05
575 2 0.183404 0.760877 0.000174179
576 2 0.154995 0.745291 0.000250338
577 2 0.175921 0.754533 0.000339259
578 1 0.2 0.85 0
579 2 0.213624 0.844226 9.55209e-05
580 1 0.2 0.9 0
581 2 0.178857 0.891268 8.89203e-05
582 2 0.221979 0.910312 0.000122254
583 2 0.223189 0.910312 0.000222224
584 2 0.208409 0.957906 0.000214152
585 2 0.164839 0.939911 0.000247485
586 2 0.151316 0.891973 0.000256215
587 2 0.152526 0.891973 0.000356185
588 2 0.150067 0.869229 0.000445106
589 2 0.145557 0.831632 0.000510408
590 2 0.101234 0.85431 0.000519649
591 2 0.110222 0.833274 0.000608569
592 2 0.13828 0.854177 0.000680007
593 2 0.15487 0.900907 0.000667204
594 2 0.117137 0.915789 0.000725676
595 2 0.139908 0.913605 0.000814597
596 2 0.120343 0.956494 0.00084793
597 2 0.100779 0.999383 0.000881263
598 2 0.0634335 0.982889 0.000938998
599 2 0.0587635 0.02336 0.000996976
600 2 0.081535 0.021175 0.0010859
601 2 0.0447665 0.034265 0.00102339
602 2 0.001196 0.05266 0.000990939
603 2 0.0073965 0.006345 0.000955354
604 2 0.0049375 0.983603 0.00104427
605 2 0.02213 0.965608 0.00113101
606 2 0.994945 0.00174 0.00117369
607 2 0.9738 0.045855 0.00119437
608 2 0.011316 0.058945 0.00125508
609 2 0.027906 0.105675 0.00124227
610 2 0.0238225 0.12835 0.00115353
611 1 0.2 0.95 0
612 1 0.25 0 0
613 2 0.228857 0.991265 8.89203e-05
614 2 0.225113 0.0348475 0.000137366
615 2 0.253394 0.0725625 0.000170699
616 2 0.256403 0.027831 0.000214974
617 2 0.294824 0.0122465 0.000270866
618 2 0.267639 0.99047 0.000342608
619 2 0.284583 0.953325 0.000400343
620 2 0.239385 0.944595 0.000361311
621 2 0.218242 0.988705 0.000381992
622 2 0.191057 0.9531 0.000337572
623 2 0.153324 0.982155 0.000307103
624 2 0.181381 0.00306 0.000378541
625 2 0.154196 0.98128 0.000450284
626 2 0.19171 0.994375 0.000510991
627 2 0.144297 0.97902 0.000502918
628 2 0.157921 0.973245 0.000598439
629 2 0.157921 0.0232415 0.000599649
630 2 0.114351 0.005246 0.000632983
631 2 0.0932075 0.0150515 0.000544511
632 2 0.0932075 0.0150515 0.000444511
633 2 0.0736425 0.0579405 0.000477844
634 2 0.111013 0.0735535 0.000536486
635 2 0.0826035 0.0579685 0.000612645
636 2 0.088804 0.0407375 0.000705697
637 2 0.0579985 0.0538285 0.000779984
638 2 0.0625265 0.00589 0.000806921
639 2 0.0670545 0.95795 0.000833858
640 1 0.25 0.05 0
641 1 0.25 0.1 0
642 1 0.25 0.15 0
643 2 0.270926 0.159242 8.89203e-05
644 2 0.227356 0.175244 0.000126098
645 2 0.228565 0.175244 0.000226068
646 2 0.215043 0.127306 0.000234798
647 2 0.218052 0.0825745 0.000279073
648 2 0.190867 0.118707 0.000321757
649 2 0.160062 0.131798 0.000396044
650 2 0.138919 0.175911 0.000416725
651 2 0.145119 0.158681 0.000509776
652 2 0.158743 0.206508 0.000520167
653 2 0.181514 0.204324 0.000609087
654 2 0.195138 0.156385 0.000601014
655 1 0.25 0.2 0
656 1 0.25 0.25 0
657 1 0.25 0.3 0
658 2 0.24754 0.277257 8.89203e-05
659 1 0.25 0.35 0
660 1 0.25 0.4 0
661 2 0.228857 0.391268 8.89203e-05
662 1 0.25 0.45 0
663 1 0.25 0.5 0
664 1 0.25 0.55 0
665 2 0.25121 0.55 9.99707e-05
666 2 0.264833 0.597827 0.000110361
667 2 0.242122 0.600561 0.000199281
668 2 0.220979 0.55621 0.000180741
669 2 0.176657 0.578887 0.000189982
670 1 0.25 0.6 0
671 1 0.25 0.65 0
672 1 0.25 0.7 0
673 2 0.24754 0.677257 8.89203e-05
674 2 0.209808 0.692138 0.000147393
675 1 0.25 0.75 0
676 2 0.24754 0.727257 8.89203e-05
677 1 0.25 0.8 0
678 1 0.25 0.85 0
679 1 0.25 0.9 0
680 1 0.25 0.95 0
681 1 0.3 0 0
682 2 0.317192 0.982005 8.67311e-05
683 2 0.291539 0.024621 9.6869e-05
684 1 0.3 0.05 0
685 1 0.3 0.1 0
686 2 0.277288 0.102735 8.89203e-05
687 2 0.315709 0.0871495 0.000144812
688 2 0.353442 0.102735 0.000202547
689 2 0.356451 0.125411 0.000291468
690 2 0.306455 0.125411 0.000292678
691 2 0.323398 0.0882685 0.000350413
692 2 0.2782 0.079536 0.000311381
693 2 0.257057 0.12365 0.000332062
694 2 0.240626 0.170381 0.000345664
695 2 0.213442 0.206513 0.000388348
696 2 0.175709 0.190928 0.000330613
697 2 0.148524 0.155323 0.000286193
698 2 0.162148 0.159939 0.000190421
699 1 0.3 0.15 0
700 1 0.3 0.2 0
701 1 0.3 0.25 0
702 2 0.278857 0.241268 8.89203e-05
703 2 0.256145 0.244001 0.000177841
704 2 0.228666 0.259586 0.000255352
705 2 0.266399 0.275171 0.000313087
706 2 0.269408 0.297848 0.000402007
707 2 0.269408 0.296638 0.000501978
708 2 0.275609 0.279407 0.00059503
709 2 0.248424 0.315539 0.000637714
710 2 0.203226 0.306806 0.000598682
711 2 0.165493 0.277393 0.000627736
712 2 0.121922 0.293395 0.000664913
713 2 0.144694 0.291211 0.000753833
714 2 0.139626 0.244344 0.000787167
715 2 0.10882 0.257435 0.000861454
716 2 0.071087 0.286489 0.000830985
717 2 0.0326665 0.302074 0.000775093
718 2 0.0601455 0.286489 0.000697582
719 2 0.0466235 0.238551 0.000706311
720 2 0.060247 0.243167 0.000610539
721 2 0.015049 0.234434 0.000571507
722 2 0.0096795 0.275591 0.000515748
723 2 0.98697 0.278325 0.000604668
724 2 0.018663 0.314551 0.000631728
725 1 0.3 0.3 0
726 2 0.290506 0.320813 8.89203e-05
727 2 0.328239 0.291758 0.000119389
728 2 0.301054 0.269981 0.000191131
729 2 0.318247 0.251985 0.000277862
730 2 0.321256 0.207254 0.000322137
731 2 0.292847 0.191669 0.000398296
732 2 0.311369 0.148319 0.000431629
733 2 0.264566 0.153954 0.000464962
734 2 0.220996 0.137507 0.00042857
735 2 0.195342 0.131922 0.000513675
736 2 0.233762 0.116337 0.000569567
737 2 0.236771 0.161592 0.00052747
738 2 0.269134 0.13184 0.000575113
739 2 0.262533 0.178571 0.00054209
740 2 0.294228 0.214797 0.00056915
741 2 0.291769 0.192054 0.00065807
742 2 0.308961 0.174059 0.000744801
743 2 0.30476 0.12612 0.000717653
744 2 0.313748 0.105084 0.000806574
745 2 0.319949 0.087853 0.000899625
746 2 0.347631 0.0676135 0.00082685
747 2 0.347631 0.0176465 0.000823221
748 2 0.304061 0.033649 0.000860399
749 2 0.266327 0.062703 0.00082993
750 2 0.256833 0.0835155 0.00091885
751 2 0.226028 0.0966065 0.000993138
752 2 0.182255 0.082662 0.00103261
753 2 0.220675 0.0670775 0.0010885
754 2 0.25538 0.0643415 0.00101672
755 2 0.234236 0.108455 0.0010374
756 2 0.274769 0.103576 0.00109514
757 2 0.312282 0.116667 0.00115584
758 2 0.356703 0.139344 0.00114875
759 2 0.388398 0.125377 0.00122087
760 2 0.357592 0.138467 0.00129516
761 2 0.341162 0.185198 0.00130876
762 2 0.378895 0.200783 0.0013665
763 2 0.381904 0.22346 0.00145542
764 2 0.387273 0.251836 0.00153705
765 2 0.425006 0.28125 0.00150799
766 2 0.408062 0.318392 0.00145026
767 2 0.421687 0.366219 0.00146065
768 2 0.421687 0.416216 0.00146186
769 2 0.417176 0.378618 0.00152716
770 2 0.4308 0.372845 0.00162268
771 2 0.468533 0.402259 0.00159363
772 2 0.488594 0.393527 0.00150371
773 2 0.502218 0.398143 0.00140794
774 2 0.45702 0.38941 0.00136891
775 2 0.45702 0.38941 0.00126891
776 2 0.492397 0.410313 0.00121193
777 2 0.519876 0.394728 0.00113442
778 1 0.3 0.35 0
779 1 0.3 0.4 0
780 1 0.3 0.45 0
781 2 0.278857 0.441268 8.89203e-05
782 2 0.257714 0.432535 0.000177841
783 2 0.280484 0.430351 0.000266761
784 2 0.236163 0.453028 0.000276001
785 2 0.236163 0.451818 0.000375972
786 2 0.273896 0.481232 0.000346918
787 2 0.276905 0.503909 0.000435839
788 2 0.260474 0.55064 0.000449441
789 2 0.216904 0.566643 0.000486618
790 2 0.255325 0.551058 0.000542511
791 2 0.264313 0.530022 0.000631431
792 2 0.282834 0.486672 0.000664764
793 2 0.310516 0.466433 0.000591989
794 2 0.342212 0.479523 0.000519214
795 2 0.360733 0.436174 0.000552548
796 2 0.398466 0.465588 0.000523494
797 2 0.44162 0.447593 0.000488062
798 2 0.459755 0.433648 0.000576982
799 2 0.479658 0.461574 0.000504207
800 2 0.463618 0.499115 0.000561942
801 2 0.420048 0.517509 0.00052949
802 2 0.404007 0.555051 0.000587225
803 2 0.387064 0.592193 0.00052949
804 2 0.430218 0.574198 0.000494058
805 2 0.458275 0.595101 0.000565496
806 2 0.502988 0.586368 0.000606703
807 2 0.466932 0.607272 0.000661949
808 2 0.430876 0.628175 0.000717195
809 2 0.473998 0.64722 0.000750528
810 2 0.477007 0.692474 0.000708431
811 2 0.477007 0.692474 0.000608431
812 1 0.3 0.5 0
813 2 0.277288 0.502734 8.89203e-05
814 1 0.3 0.55 0
815 1 0.3 0.6 0
816 1 0.3 0.65 0
817 1 0.3 0.7 0
818 2 0.306201 0.682769 9.30517e-05
819 1 0.3 0.75 0
820 2 0.322771 0.747816 8.89203e-05
821 2 0.282133 0.751714 0.000146655
822 2 0.2444 0.766596 0.000205128
823 2 0.248928 0.718657 0.000232064
824 2 0.26745 0.675308 0.000265398
825 2 0.31187 0.697985 0.000258305
826 2 0.332796 0.707226 0.000347225
827 2 0.379721 0.702726 0.000380558
828 2 0.411416 0.738952 0.000407619
829 2 0.436029 0.782287 0.000399546
830 2 0.40762 0.766703 0.000475705
831 2 0.398125 0.787515 0.000564625
832 2 0.354555 0.805909 0.000532173
833 2 0.382964 0.821493 0.000456013
834 2 0.363399 0.864382 0.000489347
835 2 0.377123 0.882683 0.000578267
836 2 0.381651 0.834745 0.000605204
837 2 0.338081 0.850747 0.000642381
838 2 0.341089 0.873425 0.000731301
839 2 0.344098 0.918679 0.000689204
840 2 0.300528 0.934681 0.000726382
841 2 0.300528 0.934681 0.000626382
842 1 0.3 0.8 0
843 2 0.322771 0.797816 8.89203e-05
844 1 0.3 0.85 0
845 2 0.277288 0.852735 8.89203e-05
846 2 0.24888 0.837149 0.000165079
847 2 0.202077 0.842784 0.000198413
848 2 0.203287 0.842784 0.000298383
849 2 0.216911 0.794846 0.000290311
850 2 0.254424 0.807936 0.000351018
851 2 0.250224 0.759998 0.00032387
852 2 0.206653 0.742003 0.000357204
853 2 0.211181 0.694064 0.00038414
854 2 0.167611 0.677616 0.000347748
855 2 0.167611 0.677616 0.000247748
856 2 0.17062 0.632885 0.000292023
857 2 0.21839 0.647088 0.00028395
858 1 0.3 0.9 0
859 2 0.322771 0.897816 8.89203e-05
860 2 0.301628 0.889083 0.000177841
861 2 0.333323 0.92531 0.000204901
862 2 0.289002 0.947987 0.000214142
863 2 0.326515 0.961078 0.000274849
864 2 0.355558 0.00155 0.000283486
865 2 0.346064 0.02236 0.000372407
866 2 0.332542 0.974422 0.000381136
867 2 0.370275 0.945368 0.000411605
868 2 0.371485 0.945368 0.000511576
869 2 0.408999 0.958459 0.000572283
870 2 0.381814 0.994591 0.000614967
871 2 0.40274 0.00383 0.000703888
872 2 0.374331 0.988247 0.000780047
873 2 0.374331 0.938281 0.000776418
874 2 0.336597 0.908866 0.000805472
875 2 0.309413 0.944998 0.000848156
876 2 0.326605 0.927003 0.000934887
877 2 0.313084 0.879064 0.000943616
878 2 0.347788 0.882668 0.00101524
879 2 0.320308 0.898252 0.00109276
880 2 0.36343 0.917296 0.00112609
881 2 0.369631 0.900066 0.00121914
882 2 0.388153 0.856716 0.00125247
883 2 0.388153 0.856716 0.00115247
884 2 0.35042 0.841132 0.00109474
885 2 0.306849 0.823136 0.00112807
886 2 0.306849 0.823136 0.00102807
887 2 0.259437 0.807782 0.00102
888 2 0.256977 0.785039 0.00110892
889 2 0.261506 0.7371 0.00113586
890 2 0.211509 0.7371 0.00113707
891 2 0.225742 0.705901 0.00106429
892 2 0.208798 0.743044 0.00100656
893 2 0.187655 0.752849 0.000918085
894 2 0.193855 0.79958 0.000951419
895 2 0.189185 0.84005 0.0010094
896 2 0.151452 0.854932 0.00106787
897 2 0.107882 0.870934 0.00110505
898 2 0.06356 0.893612 0.00111429
899 2 0.0863315 0.891428 0.00120321
900 2 0.0908595 0.843489 0.00123014
901 2 0.113631 0.841305 0.00131906
902 2 0.0758975 0.856187 0.00137754
903 2 0.0385525 0.839693 0.00143527
904 2 0.0101435 0.824109 0.00151143
905 2 0.98743 0.826843 0.00160035
906 2 0.971 0.873574 0.00161395
907 2 0.984625 0.867801 0.00170947
908 1 0.3 0.95 0
909 2 0.278857 0.941268 8.89203e-05
910 1 0.35 0 0
911 1 0.35 0.05 0
912 1 0.35 0.1 0
913 1 0.35 0.15 0
914 2 0.340506 0.170813 8.89203e-05
915 2 0.363277 0.168628 0.000177841
916 2 0.366286 0.191306 0.000266761
917 2 0.404019 0.20689 0.000324496
918 2 0.366286 0.221772 0.000382968
919 2 0.350246 0.259314 0.000440703
920 2 0.340752 0.280126 0.000529623