LAMMPS Description

13332	 atoms
12120	 bonds
0	angles
0	dihedrals
0	impropers

2	atom types
1	bond types
0	angle types
0	dihedral types
0	improper types

-50 50 xlo xhi
-50 50 ylo yhi
-50 50 zlo zhi


Masses

	1 1.0
	2 1.0

Atoms

1 1 1 0 -0.4783 -2.3342 -8.0366
2 2 1 0 -1.1222 -2.21 -7.9734
3 3 2 0 -1.5638 -2.4282 -8.8317
4 4 2 0 -1.6656 -2.9814 -9.6558
5 5 2 0 -1.8923 -3.1737 -10.6072
6 6 2 0 -1.8055 -3.2472 -11.59
7 7 2 0 -2.3338 -4.0924 -11.6652
8 8 2 0 -3.1873 -4.5459 -11.522
9 9 2 0 -3.6098 -3.6339 -11.6106
10 10 2 0 -4.1184 -3.8862 -12.4622
11 11 2 0 -3.5586 -3.0529 -12.6383
12 12 2 0 -3.746 -2.3068 -12.0155
13 13 2 0 -4.3382 -2.6767 -11.3251
14 14 2 0 -5.0779 -2.2343 -10.7918
15 15 2 0 -4.7168 -1.978 -9.9077
16 16 2 0 -4.44432 -1.02146 -9.8038
17 17 1 0 0.2654 -2.4177 -8.0239
18 18 1 0 0.9259 -2.0818 -8.1093
19 19 2 0 1.0092 -2.5611 -8.9783
20 20 2 0 0.8352 -3.5178 -8.9197
21 21 2 0 1.1614 -3.8702 -9.7663
22 22 2 0 1.0599 -4.3721 -10.616
23 23 2 0 1.3363 -5.3067 -10.9209
24 24 2 0 0.5798 -5.9259 -10.6988
25 25 2 0 0.7797 -6.8507 -10.3972
26 26 2 0 1.7558 -7.0228 -10.4437
27 27 2 0 1.9126 -7.8404 -9.8585
28 28 2 0 1.7835 -8.6655 -9.2997
29 29 2 0 1.0961 -9.2926 -8.9591
30 30 2 0 1.3155 -9.54 -9.8871
31 31 2 0 0.7572 -10.2045 -10.3151
32 32 2 0 0.728 -9.575 -11.1084
33 33 2 0 1.3855 -10.2981 -11.3198
34 34 2 0 1.504 -10.0554 -12.2555
35 35 2 0 1.6053 -9.1032 -12.1308
36 36 2 0 2.3228 -9.3719 -12.7823
37 37 2 0 3.0566 -8.6962 -12.6493
38 38 2 0 2.3638 -8.2199 -13.1208
39 39 2 0 1.8778 -8.8243 -13.807
40 40 2 0 1.8046 -8.05 -14.4178
41 41 2 0 2.714 -8.412 -14.7248
42 42 2 0 2.9686 -9.3497 -14.9168
43 43 2 0 3.0529 -9.888 -14.1268
44 44 2 0 3.6956 -10.6045 -13.8335
45 45 2 0 4.2378 -10.901 -14.593
46 46 2 0 5.008 -11.0318 -13.9793
47 47 2 0 5.4838 -11.868 -13.7179
48 48 2 0 5.7628 -12.7358 -13.4582
49 49 2 0 6.0803 -13.6649 -13.6113
50 50 2 0 6.1226 -14.6814 -13.6871
51 51 2 0 6.435 -14.5198 -12.7456
52 52 2 0 7.2682 -13.949 -12.5967
53 53 2 0 6.7718 -13.0535 -12.5191
54 54 2 0 6.2694 -13.625 -11.8776
55 55 2 0 6.4408 -13.2405 -10.9723
56 56 2 0 6.6387 -12.6321 -10.2151
57 57 2 0 7.4164 -12.5091 -10.8434
58 58 2 0 8.4016 -12.7572 -10.7209
59 59 2 0 8.5701 -12.4963 -9.7809
60 60 2 0 7.861 -12.0248 -9.2121
61 61 2 0 7.969 -11.0099 -9.4367
62 62 2 0 8.3862 -11.1352 -10.3241
63 63 2 0 8.7015 -10.8751 -11.2195
64 64 2 0 8.6007 -10.2424 -12.0152
65 65 2 0 7.9076 -10.5455 -12.6327
66 66 2 0 8.1995 -11.0952 -13.4468
67 67 2 0 7.2434 -11.5045 -13.3581
68 68 2 0 8.0092 -12.1198 -13.3691
69 69 2 0 8.1159 -12.9124 -12.7247
70 70 2 0 8.2653 -13.7415 -13.2148
71 71 2 0 8.9248 -13.749 -13.978
72 72 2 0 9.5595 -13.7384 -14.7451
73 73 2 0 9.8812 -13.8631 -15.6502
74 74 2 0 10.2513 -13.8391 -16.6002
75 75 2 0 10.8736 -13.0756 -16.6479
76 76 2 0 11.7931 -12.68 -16.6175
77 77 2 0 12.255 -13.4099 -17.1799
78 78 2 0 13.2575 -13.3543 -17.1772
79 79 2 0 13.3484 -12.6899 -17.8876
80 80 2 0 12.8842 -11.7755 -17.7368
81 81 2 0 11.977 -11.4792 -17.5221
82 82 2 0 11.1002 -11.5072 -17.9164
83 83 2 0 10.8284 -10.5965 -18.2214
84 84 2 0 11.3914 -10.1509 -17.4962
85 85 2 0 11.5106 -10.213 -16.4629
86 86 2 0 12.2563 -9.5986 -16.3539
87 87 2 0 12.3542 -9.4235 -15.3887
88 88 2 0 12.7471 -10.2706 -15.0486
89 89 2 0 12.8196 -11.232 -15.2919
90 90 2 0 12.3101 -12.0096 -15.541
91 91 2 0 12.3834 -12.5218 -14.6726
92 92 2 0 12.5968 -13.4037 -14.2782
93 93 2 0 13.2944 -13.7939 -13.7102
94 94 2 0 14.0102 -13.3493 -14.2097
95 95 2 0 14.4754 -13.958 -14.8386
96 96 2 0 14.7358 -14.7273 -14.2999
97 97 2 0 14.4588 -15.6791 -14.3268
98 98 2 0 14.0076 -16.3993 -14.8413
99 99 2 0 14.0678 -15.4942 -15.2623
100 100 2 0 13.7722 -14.5423 -15.343
101 101 2 0 13.3809 -13.6846 -15.0097
102 102 2 0 13.2992 -13.231 -15.8972
103 103 2 0 14.0067 -12.813 -16.4669
104 104 2 0 13.6859 -12.0621 -15.8895
105 105 1 0 -2.5048 -0.4563 -7.9192
106 106 2 0 -3.0609 -0.8649 -8.608
107 107 2 0 -3.7934 -1.4492 -8.8721
108 108 2 0 -3.3292 -1.4163 -9.7381
109 109 2 0 -2.8727 -1.497 -10.5881
110 110 2 0 -3.1418 -1.4598 -11.536
111 111 2 0 -3.8702 -0.9313 -12.0064
112 112 2 0 -4.5041 -0.6209 -12.7364
113 113 2 0 -4.9015 0.1649 -13.1512
114 114 2 0 -5.7436 -0.3638 -13.2691
115 115 2 0 -5.8796 0.4968 -13.7962
116 116 2 0 -6.8789 0.2607 -13.7872
117 117 2 0 -6.8229 -0.7341 -13.7256
118 118 2 0 -7.3769 -1.0043 -12.9286
119 119 2 0 -7.0847 -0.9442 -11.9631
120 120 2 0 -6.9992 -1.9035 -11.7149
121 121 2 0 -6.5356 -1.6975 -12.5812
122 122 2 0 -5.7807 -1.6317 -13.1886
123 123 2 0 -5.047 -2.3323 -13.394
124 124 2 0 -4.2537 -1.8299 -13.6204
125 125 2 0 -3.4997 -2.113 -14.1694
126 126 2 0 -4.37111 -2.44195 -14.5333
127 127 2 0 -3.7372 -3.15972 -14.8214
128 128 2 0 -3.82122 -4.11849 -15.0929
129 129 2 0 -2.95814 -4.47841 -15.4472
130 130 1 0 -2.029 -1.7075 -7.8061
131 131 2 0 -2.5779 -2.2237 -8.4302
132 132 2 0 -3.1971 -2.8873 -8.8972
133 133 2 0 -3.1255 -3.1015 -9.8859
134 134 2 0 -3.8871 -3.3512 -10.4836
135 135 2 0 -4.7411 -3.7835 -10.7236
136 136 1 0 -2.0567 -0.9641 -8.1243
137 137 1 0 -1.9087 -0.2037 -8.4077
138 138 1 0 -1.5366 -1.5635 -8.1889
139 139 1 0 -0.8621 -1.6718 -8.3975
140 140 1 0 -1.4291 -0.9065 -8.5201
141 141 2 0 -1.7721 -1.3008 -9.4021
142 142 2 0 -1.4536 -1.8423 -10.2004
143 143 2 0 -1.84 -1.9886 -11.1149
144 144 2 0 -2.3547 -2.2968 -11.8897
145 145 2 0 -2.4013 -3.0672 -12.5191
146 146 2 0 -1.4407 -3.0132 -12.8587
147 147 2 0 -1.3419 -3.9594 -12.5413
148 148 2 0 -0.9939 -4.825 -12.8588
149 149 2 0 -0.8539 -5.4453 -13.6205
150 150 2 0 -0.7681 -5.297 -14.6139
151 151 2 0 -1.671 -5.4523 -14.2566
152 152 2 0 -2.384 -6.1607 -14.0553
153 153 2 0 -3.2806 -5.8985 -14.3845
154 154 2 0 -3.7894 -5.0429 -14.5921
155 155 2 0 -4.7024 -5.2225 -14.9067
156 156 2 0 -4.1932 -5.0339 -15.7731
157 157 2 0 -4.0215 -5.9767 -16.0156
158 158 2 0 -3.7201 -6.6865 -15.3345
159 159 2 0 -2.9869 -6.9764 -15.9373
160 160 2 0 -2.4874 -7.5218 -16.6029
161 161 2 0 -2.0928 -7.3034 -17.5595
162 162 2 0 -1.2877 -7.5467 -18.0967
163 163 2 0 -0.5744 -8.1744 -18.4216
164 164 2 0 -0.8563 -9.1164 -18.7023
165 165 2 0 -1.8127 -8.9081 -18.5519
166 166 2 0 -2.4514 -8.4451 -17.9152
167 167 2 0 -3.2613 -8.9721 -18.1931
168 168 2 0 -3.6617 -8.0441 -18.2917
169 169 2 0 -4.3615 -8.7637 -18.3382
170 170 2 0 -5.1414 -8.1704 -18.6673
171 171 2 0 -4.4789 -8.1787 -19.3947
172 172 2 0 -5.2157 -7.7569 -19.917
173 173 2 0 -5.1285 -8.2319 -20.787
174 174 2 0 -4.7818 -7.4707 -21.3079
175 175 2 0 -4.1501 -7.3167 -20.574
176 176 2 0 -4.0341 -6.7591 -19.7727
177 177 2 0 -3.121 -6.6093 -20.1262
178 178 2 0 -2.3035 -6.1231 -19.8138
179 179 2 0 -2.0452 -7.0734 -19.8013
180 180 2 0 -1.4318 -7.1948 -20.5938
181 181 2 0 -2.1089 -7.6257 -21.1942
182 182 2 0 -2.9849 -7.4935 -21.689
183 183 2 0 -2.8607 -8.4019 -22.1098
184 184 2 0 -3.7553 -8.8436 -22.2204
185 185 2 0 -3.6503 -9.1071 -23.1745
186 186 2 0 -4.3012 -8.3149 -23.0876
187 187 2 0 -4.818 -7.5967 -23.6116
188 188 2 0 -4.1206 -7.0457 -23.0393
189 189 2 0 -4.2076 -6.4143 -22.2625
190 190 2 0 -4.1538 -5.7698 -21.4633
191 191 2 0 -4.9524 -5.174 -21.7373
192 192 2 0 -5.7432 -5.5831 -21.3238
193 193 2 0 -6.4823 -5.5486 -22.0424
194 194 2 0 -5.9053 -5.1598 -22.7104
195 195 2 0 -5.7033 -5.5815 -23.6134
196 196 2 0 -5.4274 -5.1354 -24.481
197 197 2 0 -5.8705 -5.0589 -25.3938
198 198 2 0 -6.7702 -4.7434 -25.7008
199 199 2 0 -6.7967 -4.0951 -24.9226
200 200 2 0 -5.9032 -3.6532 -25.0488
201 201 2 0 -5.4029 -2.809 -25.3143
202 202 2 0 -5.8705 -2.662 -24.4446
203 203 2 0 -5.3985 -1.7684 -24.3037
204 204 2 0 -4.7362 -1.9417 -23.5728
205 205 2 0 -5.3418 -2.7059 -23.3142
206 206 2 0 -5.4701 -3.5442 -23.8276
207 207 2 0 -6.2936 -3.6138 -23.2356
208 208 2 0 -7.2626 -3.2716 -23.0748
209 209 2 0 -8.1312 -3.0576 -22.6409
210 210 2 0 -8.2186 -4.0619 -22.8908
211 211 2 0 -8.5345 -4.5729 -23.7174
212 212 2 0 -7.6543 -4.9965 -23.6993
213 213 2 0 -7.9709 -5.7775 -24.2547
214 214 2 0 -8.91915 -6.08459 -24.3354
215 215 2 0 -9.02051 -7.02194 -24.0021
216 216 2 0 -8.38661 -7.30129 -23.2809
217 217 2 0 -7.63633 -7.03947 -22.6738
218 218 2 0 -7.36386 -6.08293 -22.5699
219 219 2 0 -8.23526 -5.76288 -22.1981
220 220 2 0 -8.85137 -5.50106 -21.4553
221 221 2 0 -9.04126 -5.08481 -20.5661
222 222 2 0 -9.23114 -4.66856 -19.6769
223 223 2 0 -9.9858 -4.08748 -19.9815
224 224 2 0 -10.3771 -3.22971 -19.6482
225 225 1 0 -0.6543 -1.0936 -8.7094
226 226 1 0 -0.5893 -0.4032 -8.9074
227 227 1 0 -1.2281 -0.2365 -8.7386
228 228 2 0 -1.5293 0.0148 -9.6286
229 229 2 0 -2.1563 -0.2698 -10.3439
230 230 2 0 -2.0119 -0.6757 -11.2195
231 231 2 0 -1.3586 -0.9558 -11.9125
232 232 2 0 -1.6679 -0.0497 -12.157
233 233 2 0 -2.481 -0.2018 -12.7028
234 234 2 0 -2.6492 -0.5523 -13.582
235 235 2 0 -3.4085 -0.5779 -14.2768
236 236 2 0 -3.9983 -1.0948 -14.8839
237 237 2 0 -3.771 -1.3537 -15.8173
238 238 2 0 -4.516 -1.7781 -16.2851
239 239 2 0 -3.6596 -2.2054 -16.6187
240 240 2 0 -4.2352 -2.8479 -17.1675
241 241 2 0 -4.8187 -3.2428 -17.8732
242 242 2 0 -4.1625 -3.9903 -18.1308
243 243 2 0 -3.4706 -3.261 -18.2474
244 244 2 0 -2.4934 -3.1401 -18.3705
245 245 2 0 -2.6483 -2.3099 -18.8678
246 246 2 0 -1.7874 -2.2153 -19.3343
247 247 2 0 -1.446 -2.8783 -18.6934
248 248 2 0 -0.8976 -2.0508 -18.5864
249 249 2 0 -0.987 -1.1209 -19.0571
250 250 2 0 -0.2653 -0.7736 -19.5978
251 251 2 0 -0.7562 0.083 -19.3657
252 252 2 0 -0.5906 0.9698 -18.9436
253 253 2 0 0.1192 0.8763 -19.6278
254 254 2 0 0.6471 0.1276 -19.2818
255 255 2 0 1.273 0.1522 -20.0886
256 256 2 0 1.7588 0.5228 -19.2881
257 257 2 0 2.3609 1.2512 -19.6163
258 258 2 0 1.969 2.1712 -19.7128
259 259 2 0 2.2409 3.034 -20.2161
260 260 2 0 2.4598 2.5125 -21.016
261 261 2 0 3.1493 1.8227 -21.2972
262 262 2 0 2.8088 1.8102 -22.2777
263 263 2 0 2.4954 1.7256 -23.2137
264 264 2 0 1.7083 1.7138 -22.5797
265 265 2 0 1.5441 0.8293 -23.0573
266 266 2 0 1.3868 0.2949 -22.225
267 267 2 0 2.3688 0.3335 -22.1622
268 268 2 0 3.3103 0.0594 -22.0885
269 269 2 0 3.4422 -0.9222 -22.2384
270 270 2 0 4.2853 -1.5254 -22.3039
271 271 2 0 4.9789 -0.8614 -22.5934
272 272 2 0 5.0351 -0.9535 -23.6322
273 273 2 0 5.9223 -1.1555 -24.0627
274 274 2 0 5.7658 -0.1876 -23.87
275 275 2 0 6.147 0.3253 -24.6432
276 276 2 0 6.0861 0.6199 -25.5779
277 277 2 0 6.8573 1.0042 -25.059
278 278 2 0 7.401 1.8117 -24.7461
279 279 2 0 7.9737 2.1714 -25.4776
280 280 2 0 8.474 2.3498 -24.6403
281 281 2 0 8.163 2.2459 -23.7205
282 282 2 0 8.4652 1.696 -23.0075
283 283 2 0 7.9722 2.2782 -22.4009
284 284 2 0 7.5165 3.1265 -22.5724
285 285 2 0 7.6067 4.0154 -22.9417
286 286 2 0 7.2531 3.7708 -23.8614
287 287 2 0 6.9119 2.9688 -24.3785
288 288 2 0 5.9231 2.8738 -24.2429
289 289 2 0 5.5673 2.4666 -23.3999
290 290 2 0 4.6376 2.7874 -23.1072
291 291 2 0 4.6552 3.7058 -22.7508
292 292 2 0 3.9431 4.4117 -22.8683
293 293 2 0 3.1815 4.9371 -22.4803
294 294 2 0 2.7986 5.0345 -23.3619
295 295 2 0 2.4786 4.7938 -24.2699
296 296 2 0 1.8615 5.5998 -24.3899
297 297 2 0 0.9214 5.2462 -24.2091
298 298 2 0 0.9607 6.1105 -24.7668
299 299 2 0 0.2835 6.2938 -24.0118
300 300 2 0 -0.260193 5.85825 -23.2944
301 301 2 0 -1.1316 6.1783 -22.9226
302 302 2 0 -1.88626 5.86661 -23.5
303 303 2 0 -2.75767 6.18666 -23.1282
304 304 2 0 -3.62908 6.55453 -23.4527
305 305 1 0 -0.1511 -1.889 -8.3748
306 306 1 0 1.5537 -1.87 -8.0181
307 307 1 0 0.1611 -1.2871 -8.7054
308 308 2 0 0.2602 -1.734 -9.5951
309 309 2 0 -0.0079 -0.9975 -10.2639
310 310 2 0 -0.5087 -1.0732 -11.1727
311 311 2 0 -1.0725 -0.3427 -10.8438
312 312 2 0 -1.2697 0.6265 -10.8037
313 313 2 0 -1.45958 1.04275 -9.9145
314 314 1 0 0.1701 -0.5698 -8.9129
315 315 1 0 0.923 -0.783 -8.7607
316 316 2 0 1.1515 -0.7515 -9.7311
317 317 2 0 1.7297 -0.8569 -10.542
318 318 2 0 1.8023 -0.5411 -11.5257
319 319 2 0 1.6884 -0.8853 -12.4777
320 320 2 0 1.1822 -1.3599 -13.1745
321 321 2 0 1.2521 -0.4276 -13.5166
322 322 2 0 1.3357 -0.2665 -14.5139
323 323 2 0 0.664 -0.3027 -15.2613
324 324 2 0 0.3779 -0.7858 -16.1022
325 325 2 0 0.9462 -0.2621 -16.7112
326 326 2 0 0.4191 -0.6605 -17.4742
327 327 2 0 -0.1752 -0.7979 -18.2394
328 328 2 0 -0.9494 -0.399 -17.8172
329 329 2 0 -1.3013 -0.4877 -16.8889
330 330 2 0 -1.9026 -0.5517 -16.0943
331 331 2 0 -2.5389 0.0573 -15.6131
332 332 2 0 -3.1704 0.6202 -15.0636
333 333 2 0 -3.333 1.1096 -14.1861
334 334 2 0 -3.8446 1.0511 -13.3034
335 335 2 0 -4.6684 1.55 -13.5536
336 336 2 0 -5.1071 2.3944 -13.9043
337 337 2 0 -5.8022 2.0065 -13.318
338 338 2 0 -6.393 2.2811 -12.5391
339 339 2 0 -6.4707 3.0262 -13.2425
340 340 2 0 -6.8356 2.7441 -14.1472
341 341 2 0 -7.25846 3.62638 -13.9404
342 342 2 0 -7.13446 3.99341 -14.8623
343 343 2 0 -7.40392 4.6241 -15.59
344 344 1 0 0.7433 -1.607 -8.4545
345 345 1 0 1.3746 -1.2518 -8.4388
346 346 2 0 2.1169 -1.4866 -9.0587
347 347 2 0 1.8519 -1.878 -9.9196
348 348 2 0 2.172 -2.7837 -10.2234
349 349 2 0 2.1235 -3.2761 -11.1002
350 350 2 0 3.0661 -3.0846 -11.3844
351 351 2 0 3.5927 -3.9222 -11.2837
352 352 2 0 4.0135 -3.2767 -11.9006
353 353 2 0 4.4494 -3.9559 -12.4636
354 354 2 0 5.1351 -4.0451 -13.1898
355 355 2 0 5.6415 -3.3342 -12.6921
356 356 2 0 6.5802 -3.1481 -12.5784
357 357 2 0 7.3425 -2.5565 -12.5353
358 358 2 0 6.9687 -1.7037 -12.2011
359 359 2 0 6.8587 -1.5525 -13.204
360 360 2 0 6.5259 -2.3924 -13.6408
361 361 2 0 7.2922 -1.9619 -14.1369
362 362 2 0 6.8623 -1.8452 -15.0418
363 363 2 0 6.2077 -1.1394 -15.2085
364 364 2 0 6.0949 -0.5089 -14.4496
365 365 2 0 5.8075 0.3352 -14.0773
366 366 2 0 5.2194 1.0849 -13.7608
367 367 2 0 4.4365 1.7154 -13.8186
368 368 2 0 4.0137 1.0554 -14.408
369 369 2 0 3.3004 1.7313 -14.5519
370 370 2 0 2.8017 2.5758 -14.4836
371 371 2 0 3.4507 3.1222 -13.961
372 372 1 0 1.4951 -0.4895 -8.6071
373 373 1 0 0.7172 -0.0772 -8.8916
374 374 1 0 2.1237 -1.487 -7.8658
375 375 1 0 1.9625 -0.8437 -8.2237
376 376 1 0 2.5051 -0.4536 -7.9165
377 377 1 0 1.9829 -0.031 -8.34
378 378 2 0 2.5224 -0.3676 -9.0983
379 379 2 0 2.6593 -0.8561 -9.9689
380 380 2 0 3.2883 -1.4507 -10.5341
381 381 2 0 3.3644 -0.9554 -11.4249
382 382 2 0 2.8048 -0.5666 -12.1472
383 383 2 0 3.3879 -0.2611 -12.8442
384 384 2 0 3.332 -0.2819 -13.8516
385 385 2 0 2.7145 -1.0251 -14.2474
386 386 2 0 3.5164 -1.4754 -13.8978
387 387 2 0 4.1253 -1.0577 -13.227
388 388 2 0 4.8153 -1.4574 -12.6181
389 389 2 0 5.6243 -0.9412 -12.3365
390 390 2 0 5.0096 -0.2758 -12.6531
391 391 2 0 4.2919 -0.2957 -11.9374
392 392 2 0 4.8424 -0.2441 -11.1486
393 393 2 0 5.6359 0.3995 -11.0679
394 394 2 0 5.6457 0.2704 -10.0594
395 395 2 0 5.5716 0.5394 -9.1018
396 396 1 0 -2.3874 0.3025 -8.0438
397 397 2 0 -3.0411 0.3412 -8.8158
398 398 2 0 -3.2556 0.2997 -9.7715
399 399 2 0 -3.679 -0.4645 -10.2534
400 400 2 0 -4.3286 0.2776 -10.4143
401 401 2 0 -5.2985 0.2928 -10.1952
402 402 2 0 -6.06691 0.604494 -10.7541
403 403 1 0 -2.008 0.9526 -8.1792
404 404 1 0 -2.582 0.9188 -7.6967
405 405 1 0 -1.7607 1.6 -8.0588
406 406 1 0 -1.573 0.4122 -8.5517
407 407 1 0 -0.6733 1.3437 -8.6167
408 408 2 0 -1.1856 1.8313 -9.301
409 409 2 0 -0.9491 2.6251 -9.9139
410 410 2 0 -0.8591 3.4927 -10.3902
411 411 2 0 -1.2375 3.3081 -11.328
412 412 2 0 -1.1325 4.1251 -11.8973
413 413 2 0 -1.3557 5.0929 -11.8955
414 414 2 0 -2.0181 5.8434 -11.8512
415 415 2 0 -2.0531 6.8506 -11.7458
416 416 2 0 -1.9187 7.1631 -10.7932
417 417 2 0 -2.1453 7.5872 -9.8981
418 418 2 0 -2.3683 8.5257 -9.5955
419 419 2 0 -3.1332 8.7733 -10.2166
420 420 2 0 -3.8113 9.0344 -9.535
421 421 2 0 -3.8051 9.8433 -10.1375
422 422 2 0 -4.4852 10.4172 -9.6218
423 423 2 0 -5.1719 11.1607 -9.596
424 424 2 0 -5.7661 10.4207 -10.0225
425 425 2 0 -5.7344 10.0014 -9.1456
426 426 2 0 -6.4887 9.5761 -9.7071
427 427 2 0 -6.9753 10.3195 -10.1617
428 428 2 0 -7.3945 10.6815 -10.9926
429 429 2 0 -6.821 10.8239 -11.7947
430 430 2 0 -7.3423 10.0164 -12.1108
431 431 2 0 -7.8658 10.1026 -12.9809
432 432 2 0 -8.5011 10.4839 -13.6619
433 433 2 0 -7.8088 9.9872 -14.2879
434 434 2 0 -7.0726 9.3349 -14.4342
435 435 2 0 -7.1218 8.4978 -13.857
436 436 2 0 -6.1262 8.5719 -13.7353
437 437 2 0 -5.8104 7.6365 -13.8642
438 438 2 0 -5.903 6.6348 -13.8515
439 439 2 0 -6.2754 5.7286 -13.8903
440 440 2 0 -6.4513 5.1028 -14.6542
441 441 2 0 -5.8347 4.6111 -15.2691
442 442 2 0 -5.2424 3.824 -15.2081
443 443 2 0 -4.3598 3.5318 -15.3885
444 444 2 0 -4.9773 2.8638 -15.8563
445 445 2 0 -5.9435 2.7664 -15.4954
446 446 2 0 -5.9648 1.8053 -15.9075
447 447 2 0 -6.8515 1.6778 -16.359
448 448 2 0 -7.1027 0.6881 -16.2116
449 449 2 0 -6.6278 -0.1083 -16.5319
450 450 2 0 -5.8453 -0.6939 -16.558
451 451 2 0 -4.8844 -0.6789 -16.5028
452 452 2 0 -4.2779 0.0925 -16.4292
453 453 2 0 -4.1573 -0.3617 -17.2867
454 454 2 0 -5.0302 0.1032 -17.5976
455 455 2 0 -5.2549 0.5475 -18.4493
456 456 2 0 -5.9086 1.3219 -18.3082
457 457 2 0 -6.3941 2.1543 -18.0208
458 458 2 0 -6.5702 2.9867 -17.518
459 459 2 0 -5.6765 2.9235 -17.0893
460 460 2 0 -5.1948 3.7624 -16.7927
461 461 2 0 -4.6293 3.8397 -17.6232
462 462 2 0 -4.0231 4.3397 -18.2427
463 463 2 0 -3.6265 4.4793 -17.2982
464 464 2 0 -3.5716 5.3338 -16.7547
465 465 2 0 -3.2998 5.7041 -17.6697
466 466 2 0 -4.1674 6.099 -17.3747
467 467 2 0 -3.9316 7.0804 -17.2067
468 468 2 0 -4.4728 7.3767 -16.4486
469 469 2 0 -4.8725 8.1117 -16.8728
470 470 2 0 -5.4049 8.0417 -17.7403
471 471 2 0 -5.0164 8.9529 -17.7207
472 472 2 0 -5.2483 9.2118 -18.6906
473 473 2 0 -5.6902 10.1066 -18.8369
474 474 2 0 -5.9755 10.8453 -18.2944
475 475 2 0 -6.2291 10.9364 -17.2962
476 476 2 0 -5.3235 10.9695 -16.7308
477 477 2 0 -5.7563 10.1751 -16.3041
478 478 2 0 -4.8495 9.7974 -16.5709
479 479 2 0 -3.8659 10.0704 -16.5254
480 480 2 0 -3.417 10.9084 -16.9333
481 481 2 0 -3.3231 11.8348 -16.7065
482 482 2 0 -3.3602 12.3405 -17.5809
483 483 2 0 -3.2436 11.651 -18.2644
484 484 2 0 -2.2865 11.3888 -18.2606
485 485 2 0 -2.2899 10.4927 -18.6355
486 486 2 0 -2.7716 9.6775 -18.8443
487 487 2 0 -3.65803 10.131 -18.7519
488 488 2 0 -4.54447 10.5846 -18.6595
489 489 2 0 -4.14641 11.1431 -19.3872
490 490 2 0 -4.91481 11.4548 -19.9462
491 491 1 0 -1.3125 1.0631 -8.4996
492 492 1 0 -0.8403 0.4379 -8.8458
493 493 1 0 -0.1202 0.9009 -8.8324
494 494 1 0 -0.2402 1.8236 -8.4533
495 495 1 0 -0.0643 0.1672 -8.9765
496 496 2 0 -0.3399 0.5095 -9.837
497 497 2 0 0.0917 0.3193 -10.6994
498 498 2 0 0.0129 0.3232 -11.6817
499 499 2 0 0.126 -0.6203 -11.9791
500 500 2 0 -0.3807 -0.0468 -12.6841
501 501 2 0 -0.4852 -0.4017 -13.6125
502 502 2 0 -1.3926 -0.0371 -13.5048
503 503 2 0 -1.2845 -0.5329 -14.3893
504 504 2 0 -1.6744 -1.1781 -13.7109
505 505 2 0 -1.6422 -1.9545 -13.0835
506 506 2 0 -2.6536 -1.7261 -13.193
507 507 2 0 -2.4013 -1.8832 -14.1613
508 508 2 0 -1.6961 -2.547 -14.4538
509 509 2 0 -2.2947 -2.8918 -13.721
510 510 1 0 -1.0703 1.8437 -8.2513
511 511 1 0 1.3042 0.2603 -8.6912
512 512 2 0 1.5763 0.3869 -9.6475
513 513 2 0 1.8724 0.4655 -10.5821
514 514 2 0 2.6931 -0.0482 -10.8497
515 515 2 0 3.3879 0.0975 -10.1531
516 516 1 0 0.3535 1.3528 -8.6434
517 517 2 0 0.4238 2.0253 -9.3881
518 518 2 0 0.2242 2.8076 -9.9859
519 519 2 0 0.3085 2.8127 -10.9724
520 520 2 0 0.2345 2.9445 -11.9426
521 521 2 0 0.9849 2.728 -12.541
522 522 2 0 1.4777 1.9455 -12.9582
523 523 2 0 1.8841 2.2286 -13.8502
524 524 2 0 1.7319 3.2107 -14.0211
525 525 2 0 1.2868 3.1681 -14.9114
526 526 2 0 1.5489 4.1056 -14.6409
527 527 2 0 2.1072 4.2631 -15.4249
528 528 2 0 1.7432 3.951 -16.2956
529 529 2 0 1.3184 3.0029 -16.4708
530 530 2 0 1.0109 2.5376 -17.2789
531 531 2 0 0.3114 3.2581 -17.3002
532 532 2 0 0.3589 4.0462 -17.9137
533 533 2 0 0.7348 4.9432 -17.9693
534 534 2 0 0.2978 5.5328 -17.3458
535 535 2 0 0.0491 5.2903 -16.4261
536 536 2 0 0.089 4.3629 -16.7447
537 537 2 0 -0.0957 4.0446 -15.8303
538 538 2 0 -0.4436 3.1713 -15.5052
539 539 2 0 0.2784 3.5666 -14.8959
540 540 2 0 0.2269 4.4947 -14.501
541 541 2 0 -0.2865 4.9741 -15.1708
542 542 2 0 -0.3742 5.8653 -14.6857
543 543 2 0 -0.731 5.493 -13.8396
544 544 2 0 -0.0637 5.6849 -13.1471
545 545 2 0 -0.7222 4.9549 -12.8779
546 546 2 0 -1.3068 4.1897 -13.202
547 547 2 0 -1.67154 3.82979 -14.0607
548 548 2 0 -2.39265 4.24785 -13.5083
549 549 2 0 -3.26406 4.61573 -13.8328
550 550 1 0 1.1996 1.0344 -8.5709
551 551 2 0 1.673 1.5696 -9.2707
552 552 2 0 2.3246 1.7053 -10.0007
553 553 2 0 2.8294 1.8758 -10.8511
554 554 2 0 2.3802 1.3683 -11.5878
555 555 2 0 2.851 1.1736 -12.4381
556 556 2 0 3.2306 1.9398 -12.9492
557 557 2 0 2.8092 1.2631 -13.5338
558 558 2 0 2.7424 0.5783 -14.2053
559 559 2 0 2.3994 0.6543 -15.1392
560 560 2 0 3.1738 0.7281 -15.8
561 561 2 0 3.9132 0.1771 -15.3912
562 562 2 0 4.6186 -0.5398 -15.6107
563 563 2 0 4.3282 -0.778 -16.5209
564 564 2 0 3.6341 -1.0044 -15.8343
565 565 2 0 2.8162 -0.4669 -15.5312
566 566 2 0 2.2054 -1.1738 -15.9746
567 567 2 0 2.26 -0.9382 -16.9673
568 568 2 0 3.2035 -1.3017 -16.8625
569 569 2 0 3.3765 -2.0763 -17.4622
570 570 2 0 2.7473 -2.8607 -17.5568
571 571 2 0 2.7622 -2.9117 -18.5623
572 572 2 0 2.2252 -2.3934 -19.2253
573 573 2 0 2.1501 -2.4663 -20.2245
574 574 2 0 3.116 -2.5885 -20.2105
575 575 2 0 3.594 -3.4438 -20.4043
576 576 2 0 4.0396 -3.1028 -19.615
577 577 2 0 3.9713 -2.1651 -19.3255
578 578 2 0 3.3833 -1.6069 -19.9067
579 579 2 0 3.0546 -0.6659 -20.0514
580 580 2 0 3.7573 -0.9171 -20.7006
581 581 2 0 3.3478 -1.6687 -21.2758
582 582 2 0 2.882 -2.3101 -21.8912
583 583 2 0 2.487 -1.5596 -22.4248
584 584 2 0 2.4515 -1.9245 -23.3806
585 585 2 0 1.7742 -2.3816 -23.9097
586 586 2 0 2.3346 -2.2814 -24.7868
587 587 2 0 1.658 -2.3183 -25.4743
588 588 2 0 1.1368 -3.1164 -25.8755
589 589 2 0 0.1965 -2.7965 -25.9957
590 590 2 0 -0.0843 -3.2996 -25.2095
591 591 2 0 -0.2564 -2.5255 -24.5441
592 592 2 0 -0.816 -1.7464 -24.9135
593 593 2 0 0.1753 -1.5332 -25.1252
594 594 2 0 0.3491 -0.6185 -24.7766
595 595 2 0 0.7432 0.1859 -24.3002
596 596 2 0 -0.251 0.1607 -24.3387
597 597 2 0 -0.928 0.7642 -23.9193
598 598 2 0 -1.2572 1.7371 -23.9101
599 599 2 0 -1.7604 2.351 -23.2067
600 600 2 0 -1.2362 1.7904 -22.5678
601 601 2 0 -1.9527 1.1194 -22.5199
602 602 2 0 -2.2948 0.4024 -21.9306
603 603 2 0 -3.1171 -0.1763 -22.2145
604 604 2 0 -2.3259 -0.8105 -22.0216
605 605 2 0 -1.4063 -0.9874 -21.7222
606 606 2 0 -1.2565 -1.8095 -22.2651
607 607 2 0 -0.5076 -2.1851 -21.6676
608 608 2 0 -1.0235 -2.8444 -21.1439
609 609 2 0 -0.1844 -3.251 -21.5028
610 610 2 0 0.0779 -3.1903 -20.57
611 611 2 0 -0.5842 -3.9373 -20.3362
612 612 2 0 -0.2717 -3.7783 -19.3974
613 613 2 0 -0.0312 -4.531 -18.79
614 614 2 0 -0.6461 -5.3039 -19.1264
615 615 2 0 -0.6395 -5.2626 -20.1434
616 616 2 0 -1.5778 -4.8812 -20.1049
617 617 2 0 -2.1053 -4.4175 -20.8138
618 618 2 0 -2.4341 -3.6111 -21.3577
619 619 2 0 -2.3684 -2.7372 -20.8976
620 620 2 0 -3.0918 -2.8403 -20.2368
621 621 2 0 -3.8468 -2.8334 -20.8868
622 622 2 0 -4.5217 -2.2049 -20.519
623 623 2 0 -4.375 -1.2027 -20.5515
624 624 2 0 -3.3625 -1.19 -20.4628
625 625 2 0 -3.7538 -0.332227 -20.1295
626 626 2 0 -3.29838 -0.375907 -19.2403
627 627 2 0 -3.11862 -0.796627 -18.3511
628 628 2 0 -2.18012 -0.886639 -18.0177
629 629 2 0 -2.18012 -0.886639 -19.0177
630 630 2 0 -1.78205 -0.328133 -19.7455
631 631 2 0 -1.65805 0.0388976 -20.6674
632 632 2 0 -1.32624 0.973516 -20.7954
633 633 2 0 -1.59571 1.6042 -21.5232
634 634 1 0 0.5945 0.6891 -8.8531
635 635 2 0 0.615 1.0142 -9.769
636 636 2 0 0.8488 1.7265 -10.3798
637 637 2 0 0.9752 1.0015 -11.0357
638 638 2 0 0.2044 1.5186 -11.4136
639 639 2 0 0.07 1.5476 -12.4325
640 640 2 0 -0.8876 1.2661 -12.6465
641 641 2 0 -1.1474 2.1019 -13.1123
642 642 2 0 -0.167 2.1865 -13.3323
643 643 2 0 -0.448 1.8419 -14.2192
644 644 2 0 -0.175523 0.88313 -14.2999
645 645 2 0 -1.04693 0.554176 -14.6638
646 646 2 0 -0.493281 0.149386 -15.3916
647 647 2 0 0.214258 0.567453 -15.9613
648 648 2 0 -0.554152 0.879148 -16.5203
649 649 2 0 -1.42556 1.1992 -16.1485
650 650 1 0 1.7119 1.395 -8.1697
651 651 1 0 1.0086 1.79 -8.3021
652 652 1 0 1.8995 0.6757 -8.3541
653 653 2 0 2.6526 0.8856 -8.9834
654 654 1 0 2.5322 0.3692 -7.8885
655 655 1 0 2.3279 1.0073 -7.9167
656 656 1 0 2.1391 1.7399 -7.7243
657 657 1 0 -0.527 2.4096 -7.9771
658 658 2 0 -1.1382 2.9481 -8.6189
659 659 2 0 -1.8692 3.2284 -9.186
660 660 2 0 -2.5696 3.6529 -9.7557
661 661 2 0 -2.3275 3.3861 -10.6481
662 662 2 0 -2.7687 3.6264 -11.5191
663 663 2 0 -2.9235 3.5293 -12.5027
664 664 2 0 -3.4447 3.538 -13.3613
665 665 2 0 -3.856 3.0127 -14.1084
666 666 2 0 -4.1979 2.3913 -14.8033
667 667 2 0 -4.7407 1.8647 -15.466
668 668 2 0 -3.9774 2.1312 -16.0724
669 669 2 0 -4.0315 2.4039 -17.0185
670 670 2 0 -3.4852 1.5616 -17.2123
671 671 2 0 -3.5034 1.829 -18.1739
672 672 2 0 -4.485 2.0582 -18.1515
673 673 2 0 -4.6838 1.8833 -19.1188
674 674 2 0 -5.3413 2.4576 -19.586
675 675 2 0 -6.0475 2.7979 -19.0232
676 676 2 0 -6.1052 3.5133 -19.7905
677 677 2 0 -6.4152 3.6611 -20.7515
678 678 2 0 -6.5748 2.8805 -21.334
679 679 2 0 -7.4026 2.3438 -21.3523
680 680 2 0 -8.0609 2.6424 -22.0195
681 681 2 0 -8.6988 3.3248 -21.6718
682 682 2 0 -9.2403 3.1369 -22.4666
683 683 2 0 -9.6163 2.2667 -22.1964
684 684 2 0 -9.2135 1.5741 -22.7606
685 685 2 0 -8.5313 1.268 -23.4264
686 686 2 0 -8.3177 0.5721 -22.7661
687 687 2 0 -7.7262 1.3517 -22.6112
688 688 2 0 -7.1366 0.7522 -23.1562
689 689 2 0 -6.2628 0.5197 -22.7309
690 690 2 0 -5.9537 0.5822 -21.7561
691 691 2 0 -6.0648 1.2037 -20.9293
692 692 2 0 -5.3963 0.5883 -20.6295
693 693 2 0 -4.7485 0.6317 -19.8668
694 694 2 0 -3.787 0.9538 -19.912
695 695 2 0 -3.5303 1.9127 -19.7177
696 696 2 0 -2.6732 1.6346 -20.0588
697 697 2 0 -2.1091 2.0874 -20.7455
698 698 2 0 -1.9438 2.6639 -19.9727
699 699 2 0 -1.5161 2.9761 -19.117
700 700 2 0 -0.9594 2.1499 -19.2521
701 701 2 0 -1.8677 1.7118 -19.1639
702 702 2 0 -1.5561 1.3708 -18.2739
703 703 2 0 -2.44253 1.82434 -18.1815
704 704 2 0 -2.8654 0.937314 -18.3669
705 705 2 0 -2.91458 0.482452 -17.4777
706 706 1 0 -1.3751 2.2729 -7.7953
707 707 1 0 0.3679 2.0196 -8.2787
708 708 1 0 1.4527 2.1756 -7.8573
709 709 2 0 2.0247 2.77 -8.4546
710 710 2 0 2.7333 3.3663 -8.8454
711 711 2 0 2.6483 3.1249 -9.7863
712 712 2 0 3.5489 3.5127 -10.0635
713 713 2 0 3.8026 3.8988 -10.9434
714 714 2 0 3.7444 3.4017 -11.8193
715 715 2 0 4.08 2.6943 -11.2189
716 716 2 0 4.2525 2.416 -12.2047
717 717 2 0 4.8652 3.0412 -12.7078
718 718 2 0 4.6063 3.8965 -13.1276
719 719 2 0 4.7093 3.4261 -13.9875
720 720 2 0 5.0356 4.4138 -14.0717
721 721 2 0 4.5592 4.0103 -14.8856
722 722 2 0 4.0794 4.7765 -15.3285
723 723 2 0 4.9205 5.3036 -15.5772
724 724 2 0 5.253 5.7937 -16.3699
725 725 2 0 5.8585 5.8221 -17.1664
726 726 2 0 5.962 6.5147 -17.9024
727 727 2 0 6.5415 7.3164 -17.7012
728 728 2 0 6.6192 8.2887 -17.4736
729 729 2 0 7.5953 8.2593 -17.3744
730 730 2 0 8.2089 8.3886 -16.6011
731 731 2 0 7.5359 9.1254 -16.5882
732 732 2 0 6.8147 8.9027 -15.948
733 733 2 0 5.7813 8.9058 -15.9097
734 734 2 0 5.9101 8.1918 -16.6449
735 735 2 0 6.1779 7.2992 -16.2422
736 736 2 0 6.4661 6.3304 -16.3015
737 737 2 0 7.1598 5.8084 -15.7763
738 738 2 0 6.5867 5.205 -16.2857
739 739 2 0 6.2629 4.9415 -15.3261
740 740 2 0 7.1357 4.9726 -14.8609
741 741 2 0 6.5245 4.4904 -14.2192
742 742 2 0 6.2259 3.6246 -14.6408
743 743 2 0 5.749 3.5295 -15.5177
744 744 2 0 6.2333 3.9795 -16.2757
745 745 2 0 5.457 4.3641 -16.8207
746 746 2 0 6.1678 4.5849 -17.5123
747 747 2 0 5.8527 3.6524 -17.6005
748 748 2 0 5.248 2.9308 -17.3918
749 749 2 0 5.9179 2.582 -18.0203
750 750 2 0 5.2141 1.911 -18.2951
751 751 2 0 5.3988 0.9665 -18.5612
752 752 2 0 5.0247 0.0671 -18.8437
753 753 2 0 5.286 -0.6199 -18.1663
754 754 2 0 6.0507 0.0005 -18.4127
755 755 2 0 6.6139 -0.266 -19.2077
756 756 2 0 6.3799 0.3319 -20.0122
757 757 2 0 6.6163 -0.2689 -20.7787
758 758 2 0 7.0552 -0.7727 -21.5207
759 759 2 0 7.1373 0.1696 -21.845
760 760 2 0 7.6137 0.0809 -22.7369
761 761 2 0 8.6033 -0.1286 -22.7391
762 762 2 0 8.6511 -1.0358 -23.074
763 763 2 0 8.0637 -1.8073 -23.2076
764 764 2 0 7.5996 -2.0558 -22.4054
765 765 2 0 8.4502 -2.5759 -22.2507
766 766 2 0 8.0884 -3.0507 -23.0585
767 767 2 0 8.8365 -3.0449 -23.7472
768 768 2 0 9.2061 -2.3487 -24.3459
769 769 2 0 9.2061 -2.3487 -25.3459
770 770 2 0 9.96076 -2.92978 -25.0412
771 771 2 0 10.7154 -3.22741 -25.6259
772 772 2 0 10.9879 -3.34288 -24.6707
773 773 2 0 11.9433 -3.05882 -24.7515
774 774 2 0 11.8593 -4.01759 -25.0229
775 775 2 0 12.1318 -4.97636 -25.1037
776 776 2 0 11.767 -5.33628 -25.9624
777 777 2 0 12.0517 -5.96026 -26.6901
778 778 2 0 12.7592 -5.54219 -27.2599
779 779 2 0 12.0046 -4.96111 -27.5646
780 780 2 0 12.1286 -4.59408 -28.4865
781 781 2 0 11.5849 -4.17602 -29.2142
782 782 2 0 11.5849 -4.17602 -30.2142
783 783 2 0 10.6984 -3.72248 -30.1218
784 784 2 0 10.6984 -3.72248 -31.1218
785 785 2 0 9.82703 -3.3546 -31.4464
786 786 2 0 9.28334 -3.79016 -30.7289
787 787 1 0 0.7198 2.4489 -7.8796
788 788 1 0 0.1109 2.6962 -7.7697
789 789 2 0 0.0847 3.2309 -8.5965
790 790 2 0 0.1018 4.168 -8.9186
791 791 2 0 -0.1976 4.935 -9.4691
792 792 2 0 0.0916 4.2626 -10.1457
793 793 2 0 0.2419 4.5785 -11.1062
794 794 2 0 0.097 5.2977 -11.7576
795 795 2 0 -0.452584 5.60939 -10.9825
796 796 1 0 -0.402 -3.8716 -6.2249
797 797 1 0 -0.8081 -4.022 -5.7896
798 798 1 0 0.4468 -3.8465 -6.1983
799 799 1 0 -2.3224 -2.9071 -6.4532
800 800 1 0 -2.6084 -2.3807 -6.8071
801 801 1 0 -2.908 -2.5924 -6.1689
802 802 2 0 -3.2382 -3.3084 -6.8615
803 803 1 0 -2.3291 -2.0721 -7.3195
804 804 1 0 -3.3975 -2.1349 -5.9609
805 805 2 0 -4.0169 -2.5972 -6.5865
806 806 2 0 -4.5384 -3.3182 -7.0588
807 807 2 0 -4.14 -3.8299 -7.8713
808 808 2 0 -4.5651 -4.2973 -8.6701
809 809 2 0 -5.1063 -4.6824 -9.4577
810 810 2 0 -4.7723 -5.5776 -9.1414
811 811 2 0 -4.6853 -6.5396 -8.7895
812 812 2 0 -5.2601 -7.114 -9.3883
813 813 2 0 -5.1145 -7.5838 -8.5266
814 814 2 0 -5.7598 -8.2493 -8.2424
815 815 2 0 -5.6095 -8.5085 -7.3281
816 816 2 0 -6.3316 -7.8813 -7.1476
817 817 2 0 -7.1492 -7.4193 -6.8453
818 818 2 0 -6.6595 -6.5289 -6.8692
819 819 2 0 -6.1172 -6.6154 -7.6653
820 820 2 0 -7.0643 -6.6386 -8.0393
821 821 2 0 -7.626 -5.7941 -8.2137
822 822 2 0 -8.5836 -5.9209 -8.5124
823 823 2 0 -8.0577 -5.8835 -9.2976
824 824 2 0 -7.9915 -6.2136 -10.2641
825 825 2 0 -7.1078 -6.1202 -10.74
826 826 2 0 -7.8153 -6.578 -11.2548
827 827 2 0 -8.7351 -6.7985 -10.9506
828 828 2 0 -9.1107 -6.4703 -10.0552
829 829 2 0 -9.21206 -7.40764 -9.72187
830 830 2 0 -8.89126 -8.15848 -10.2992
831 831 2 0 -8.25735 -7.43395 -10.0286
832 832 2 0 -8.30654 -7.88881 -9.13941
833 833 2 0 -9.17795 -8.24873 -8.80608