ITEM: TIMESTEP
10000
ITEM: NUMBER OF ATOMS
13332
ITEM: BOX BOUNDS pp pp ff
-50 50
-50 50
-50 50
ITEM: ATOMS id type xs ys zs
1 1 0.495217 0.476658 0.419634
2 1 0.488778 0.4779 0.420266
3 2 0.485836 0.474886 0.41127
4 2 0.480446 0.471901 0.403265
5 2 0.472903 0.478265 0.400574
6 2 0.474801 0.472317 0.392574
7 2 0.464696 0.471958 0.393451
8 2 0.465913 0.462704 0.395281
9 2 0.464632 0.458381 0.386279
10 2 0.46487 0.461376 0.377159
11 2 0.464563 0.471441 0.37782
12 2 0.456305 0.474139 0.382665
13 2 0.454329 0.470146 0.391217
14 2 0.444695 0.472428 0.391755
15 2 0.434993 0.473259 0.39344
16 2 0.436519 0.480568 0.400012
17 1 0.502654 0.475823 0.419761
18 1 0.509259 0.479182 0.418907
19 2 0.507742 0.473689 0.410346
20 2 0.50835 0.468915 0.401798
21 2 0.506676 0.465508 0.392255
22 2 0.499926 0.458396 0.391884
23 2 0.493566 0.451133 0.392213
24 2 0.499375 0.443304 0.391938
25 2 0.508035 0.439069 0.389021
26 2 0.50379 0.429806 0.390606
27 2 0.507687 0.434057 0.398924
28 2 0.504038 0.42632 0.403731
29 2 0.504574 0.416261 0.402926
30 2 0.500701 0.411674 0.41085
31 2 0.507673 0.405464 0.407213
32 2 0.511892 0.407969 0.398385
33 2 0.513763 0.412536 0.389862
34 2 0.52253 0.407526 0.388038
35 2 0.525453 0.415835 0.383008
36 2 0.533395 0.413357 0.378035
37 2 0.525174 0.410226 0.372939
38 2 0.519512 0.415802 0.366398
39 2 0.52085 0.415243 0.356639
40 2 0.530307 0.415934 0.356057
41 2 0.53562 0.408983 0.350679
42 2 0.538468 0.401537 0.356265
43 2 0.531818 0.394498 0.354649
44 2 0.536246 0.38735 0.349842
45 2 0.541721 0.379338 0.351088
46 2 0.548352 0.379141 0.35879
47 2 0.548224 0.370885 0.35393
48 2 0.541235 0.365119 0.350286
49 2 0.546499 0.35885 0.356096
50 2 0.550929 0.36342 0.364043
51 2 0.547849 0.372424 0.368318
52 2 0.554981 0.369425 0.374233
53 2 0.558377 0.378417 0.37305
54 2 0.556384 0.385664 0.380165
55 2 0.563089 0.381818 0.386437
56 2 0.563393 0.375627 0.394197
57 2 0.571354 0.369999 0.397007
58 2 0.580941 0.368438 0.39684
59 2 0.58877 0.37217 0.401128
60 2 0.598976 0.373095 0.399497
61 2 0.603827 0.381326 0.4023
62 2 0.595974 0.386454 0.398552
63 2 0.593274 0.392109 0.390524
64 2 0.592805 0.388852 0.380895
65 2 0.588681 0.38842 0.37189
66 2 0.584918 0.37973 0.375656
67 2 0.579243 0.373376 0.370169
68 2 0.574483 0.378881 0.363505
69 2 0.570262 0.376445 0.355146
70 2 0.580151 0.375546 0.354195
71 2 0.582359 0.365849 0.355402
72 2 0.58552 0.367806 0.346276
73 2 0.586611 0.375255 0.339694
74 2 0.595363 0.371669 0.342878
75 2 0.599393 0.369205 0.334185
76 2 0.606346 0.373082 0.328488
77 2 0.616047 0.373556 0.327879
78 2 0.615779 0.383282 0.324488
79 2 0.624562 0.386579 0.326873
80 2 0.62458 0.393475 0.31957
81 2 0.614914 0.393907 0.319259
82 2 0.604848 0.393944 0.318354
83 2 0.608338 0.403558 0.317695
84 2 0.612423 0.402325 0.326727
85 2 0.615993 0.397841 0.334981
86 2 0.615274 0.388479 0.336747
87 2 0.624939 0.390209 0.339324
88 2 0.632656 0.391216 0.345793
89 2 0.629876 0.381644 0.34702
90 2 0.629589 0.373392 0.341051
91 2 0.621031 0.368425 0.338464
92 2 0.621131 0.367685 0.348429
93 2 0.628942 0.363041 0.352861
94 2 0.63119 0.358758 0.362057
95 2 0.640735 0.360429 0.361609
96 2 0.641773 0.352278 0.356057
97 2 0.650258 0.349185 0.352503
98 2 0.648714 0.346522 0.342938
99 2 0.651652 0.346481 0.3337
100 2 0.644051 0.352609 0.33145
101 2 0.637157 0.3573 0.325897
102 2 0.642434 0.365989 0.326878
103 2 0.643608 0.373867 0.33315
104 2 0.641793 0.383549 0.334643
105 1 0.474952 0.495437 0.420808
106 2 0.468931 0.491133 0.413641
107 2 0.464622 0.49015 0.404302
108 2 0.464824 0.489556 0.394464
109 2 0.456371 0.485972 0.391288
110 2 0.449826 0.489297 0.38423
111 2 0.45073 0.495987 0.376738
112 2 0.441366 0.497568 0.378324
113 2 0.432995 0.492777 0.376379
114 2 0.431467 0.497926 0.367741
115 2 0.428259 0.496099 0.358476
116 2 0.420926 0.500367 0.363393
117 2 0.413497 0.493762 0.363813
118 2 0.414392 0.48731 0.370771
119 2 0.423983 0.48461 0.369844
120 2 0.425255 0.477662 0.362193
121 2 0.434781 0.480142 0.361774
122 2 0.443127 0.47721 0.365749
123 2 0.45009 0.484787 0.366591
124 2 0.451212 0.480563 0.357881
125 2 0.45249 0.473126 0.351364
126 2 0.453666 0.467269 0.344148
127 2 0.46164 0.460814 0.342746
128 2 0.465561 0.470036 0.34527
129 2 0.471403 0.467233 0.353322
130 1 0.47971 0.482925 0.421939
131 2 0.473951 0.480746 0.414164
132 2 0.474876 0.47151 0.417777
133 2 0.466423 0.470703 0.411974
134 2 0.457059 0.468539 0.408267
135 2 0.458451 0.477699 0.403234
136 1 0.479433 0.490359 0.418757
137 1 0.480913 0.497963 0.415923
138 1 0.484634 0.484365 0.418111
139 1 0.491379 0.483282 0.416025
140 1 0.485709 0.490935 0.414799
141 2 0.481536 0.489955 0.405595
142 2 0.484243 0.482645 0.399427
143 2 0.482221 0.485326 0.390233
144 2 0.47619 0.480486 0.383819
145 2 0.479472 0.472782 0.378663
146 2 0.477136 0.464353 0.38359
147 2 0.481881 0.45647 0.380068
148 2 0.486376 0.449812 0.374198
149 2 0.487077 0.449366 0.364151
150 2 0.486522 0.452365 0.35458
151 2 0.476576 0.45295 0.355354
152 2 0.473298 0.455189 0.364374
153 2 0.469599 0.446374 0.360889
154 2 0.460489 0.442909 0.360655
155 2 0.463798 0.445309 0.351549
156 2 0.465029 0.439966 0.343338
157 2 0.470944 0.436991 0.35042
158 2 0.478688 0.431232 0.352735
159 2 0.485892 0.427118 0.347361
160 2 0.482989 0.42988 0.337831
161 2 0.490044 0.436255 0.340372
162 2 0.494186 0.428676 0.335842
163 2 0.493833 0.421249 0.328664
164 2 0.491974 0.413247 0.322888
165 2 0.49437 0.408045 0.314595
166 2 0.485497 0.409842 0.310267
167 2 0.479681 0.410768 0.318616
168 2 0.472625 0.416302 0.312695
169 2 0.472701 0.409796 0.304921
170 2 0.463128 0.409685 0.306711
171 2 0.457797 0.413541 0.299324
172 2 0.448605 0.410529 0.300107
173 2 0.446782 0.419232 0.304744
174 2 0.43996 0.420281 0.297666
175 2 0.442339 0.422477 0.288249
176 2 0.44832 0.429842 0.284612
177 2 0.45783 0.428084 0.287588
178 2 0.468091 0.428065 0.286702
179 2 0.466803 0.428374 0.296553
180 2 0.474796 0.422341 0.295843
181 2 0.484051 0.422546 0.292939
182 2 0.489126 0.424475 0.284233
183 2 0.48735 0.421807 0.274608
184 2 0.482103 0.413098 0.273464
185 2 0.478842 0.41514 0.28261
186 2 0.470067 0.410513 0.280552
187 2 0.462918 0.417023 0.278246
188 2 0.458835 0.412419 0.270343
189 2 0.451243 0.418215 0.272756
190 2 0.449316 0.426214 0.267207
191 2 0.445687 0.43314 0.273998
192 2 0.437386 0.432199 0.279393
193 2 0.434086 0.425578 0.272298
194 2 0.436561 0.431983 0.264788
195 2 0.440041 0.441762 0.265185
196 2 0.4406 0.438182 0.255748
197 2 0.434311 0.44573 0.256639
198 2 0.434769 0.452149 0.263918
199 2 0.439317 0.459876 0.267512
200 2 0.444634 0.462977 0.2754
201 2 0.446502 0.470402 0.269544
202 2 0.451715 0.476623 0.263714
203 2 0.453523 0.4854 0.25917
204 2 0.443705 0.485246 0.260773
205 2 0.436635 0.48286 0.266941
206 2 0.430843 0.483765 0.27469
207 2 0.423105 0.48154 0.28091
208 2 0.427783 0.472912 0.281277
209 2 0.434627 0.467144 0.276198
210 2 0.429429 0.460455 0.271624
211 2 0.424194 0.453428 0.26737
212 2 0.42347 0.44937 0.276605
213 2 0.429234 0.440843 0.27567
214 2 0.426117 0.434585 0.269291
215 2 0.420054 0.426501 0.268697
216 2 0.411353 0.429336 0.264412
217 2 0.403905 0.43612 0.267189
218 2 0.403172 0.441283 0.275754
219 2 0.41263 0.443166 0.27585
220 2 0.408847 0.438833 0.284503
221 2 0.400164 0.443466 0.286031
222 2 0.399732 0.453394 0.288804
223 2 0.403865 0.454453 0.279702
224 2 0.406052 0.458063 0.27047
225 1 0.493457 0.489064 0.412906
226 1 0.494107 0.495968 0.410926
227 1 0.487719 0.497635 0.412614
228 2 0.484655 0.500272 0.403344
229 2 0.479665 0.49667 0.396101
230 2 0.47527 0.494468 0.387388
231 2 0.469067 0.49946 0.380952
232 2 0.464157 0.495839 0.373103
233 2 0.460172 0.493427 0.36451
234 2 0.459175 0.49339 0.354884
235 2 0.463773 0.485073 0.35168
236 2 0.463932 0.488398 0.342408
237 2 0.469407 0.480166 0.341388
238 2 0.47523 0.482727 0.33355
239 2 0.468945 0.475963 0.330244
240 2 0.4643 0.468029 0.334545
241 2 0.467245 0.460586 0.32861
242 2 0.46919 0.452339 0.323525
243 2 0.478988 0.454091 0.324457
244 2 0.481597 0.463652 0.321429
245 2 0.476404 0.466887 0.313456
246 2 0.484273 0.473218 0.313361
247 2 0.476997 0.47945 0.312313
248 2 0.483392 0.485435 0.308464
249 2 0.493117 0.486021 0.311187
250 2 0.497714 0.489314 0.3196
251 2 0.499381 0.498315 0.316494
252 2 0.501169 0.50095 0.307047
253 2 0.509954 0.496049 0.305219
254 2 0.515933 0.504106 0.305477
255 2 0.515665 0.498933 0.296189
256 2 0.50709 0.502025 0.29105
257 2 0.502586 0.511247 0.290686
258 2 0.501131 0.516426 0.282131
259 2 0.501125 0.524602 0.287906
260 2 0.509748 0.52127 0.2904
261 2 0.518933 0.519497 0.287283
262 2 0.513893 0.523305 0.279257
263 2 0.517273 0.523727 0.270012
264 2 0.518931 0.5138 0.269261
265 2 0.509198 0.512657 0.272858
266 2 0.515427 0.50489 0.273922
267 2 0.518375 0.496286 0.279026
268 2 0.527961 0.497518 0.281424
269 2 0.53401 0.50028 0.273897
270 2 0.538206 0.503256 0.265571
271 2 0.545533 0.508665 0.260357
272 2 0.545088 0.503254 0.251748
273 2 0.554758 0.505445 0.254226
274 2 0.560238 0.499034 0.248713
275 2 0.562736 0.508144 0.246225
276 2 0.569565 0.513139 0.240866
277 2 0.577034 0.519323 0.241096
278 2 0.576797 0.518227 0.25151
279 2 0.580569 0.511666 0.257892
280 2 0.587039 0.511311 0.250728
281 2 0.591418 0.518354 0.256796
282 2 0.589967 0.528141 0.25864
283 2 0.585082 0.536119 0.255656
284 2 0.592983 0.539338 0.259965
285 2 0.587246 0.54558 0.263396
286 2 0.583953 0.543316 0.272226
287 2 0.579359 0.534712 0.272205
288 2 0.57565 0.536602 0.263404
289 2 0.57362 0.528427 0.258718
290 2 0.570113 0.52817 0.249775
291 2 0.560701 0.526779 0.251361
292 2 0.551202 0.52753 0.248878
293 2 0.543411 0.528646 0.254422
294 2 0.535035 0.533783 0.252202
295 2 0.531558 0.543051 0.254399
296 2 0.523867 0.543719 0.261023
297 2 0.518279 0.547913 0.268777
298 2 0.511413 0.555158 0.269901
299 2 0.501739 0.555159 0.267345
300 2 0.492991 0.557948 0.270974
301 2 0.48731 0.565596 0.267757
302 2 0.483824 0.574028 0.263321
303 2 0.483049 0.577896 0.272238
304 2 0.485646 0.587465 0.269832
305 1 0.498489 0.48111 0.416252
306 1 0.515537 0.4813 0.419819
307 1 0.501611 0.487129 0.412946
308 2 0.497879 0.48194 0.404871
309 2 0.497528 0.479343 0.39508
310 2 0.492444 0.480939 0.386541
311 2 0.496364 0.489721 0.389485
312 2 0.489448 0.496853 0.387953
313 2 0.482326 0.503821 0.386248
314 1 0.501701 0.494302 0.410871
315 1 0.50923 0.49217 0.412393
316 2 0.508645 0.48833 0.403488
317 2 0.509705 0.495786 0.396652
318 2 0.50709 0.491817 0.388017
319 2 0.508955 0.485755 0.380298
320 2 0.5186 0.486665 0.378605
321 2 0.517339 0.484351 0.368912
322 2 0.521206 0.490397 0.361893
323 2 0.518093 0.488169 0.35256
324 2 0.524863 0.488948 0.344847
325 2 0.519895 0.483796 0.33777
326 2 0.513373 0.49022 0.333979
327 2 0.504765 0.484326 0.333903
328 2 0.497033 0.489249 0.330656
329 2 0.500994 0.495197 0.337807
330 2 0.491774 0.497827 0.340553
331 2 0.481658 0.498742 0.340812
332 2 0.47176 0.499799 0.343374
333 2 0.472326 0.498201 0.353336
334 2 0.465517 0.504746 0.35582
335 2 0.459844 0.51349 0.353961
336 2 0.450538 0.511222 0.351151
337 2 0.446067 0.517516 0.357257
338 2 0.436146 0.516546 0.356476
339 2 0.431769 0.525668 0.358012
340 2 0.422804 0.527027 0.356179
341 2 0.416332 0.520278 0.353125
342 2 0.410769 0.528028 0.351851
343 2 0.407442 0.522782 0.359736
344 1 0.507433 0.48393 0.415455
345 1 0.513746 0.487482 0.415612
346 2 0.518982 0.484825 0.407874
347 2 0.523709 0.476985 0.402734
348 2 0.522813 0.473277 0.393757
349 2 0.528125 0.465987 0.3895
350 2 0.528045 0.462731 0.379964
351 2 0.536455 0.458997 0.376304
352 2 0.54295 0.458435 0.369078
353 2 0.548761 0.453045 0.362256
354 2 0.55299 0.461866 0.361801
355 2 0.557557 0.465487 0.37023
356 2 0.567532 0.464205 0.372325
357 2 0.563211 0.471203 0.377844
358 2 0.566463 0.477489 0.370644
359 2 0.576028 0.479104 0.368019
360 2 0.572283 0.481447 0.359134
361 2 0.567323 0.47332 0.355461
362 2 0.559747 0.4798 0.354588
363 2 0.552248 0.484995 0.356901
364 2 0.556152 0.493325 0.358539
365 2 0.551982 0.49772 0.349991
366 2 0.54523 0.502216 0.356149
367 2 0.540694 0.509692 0.361721
368 2 0.53428 0.5108 0.368913
369 2 0.526882 0.516581 0.364962
370 2 0.532297 0.521934 0.358008
371 2 0.531322 0.520878 0.348014
372 1 0.514951 0.495105 0.413929
373 1 0.507172 0.499228 0.411084
374 1 0.521237 0.48513 0.421342
375 1 0.519625 0.491563 0.417763
376 1 0.525051 0.495464 0.420835
377 1 0.519829 0.49969 0.4166
378 2 0.524487 0.496114 0.4083
379 2 0.524317 0.492007 0.3993
380 2 0.533687 0.494583 0.396973
381 2 0.53433 0.496593 0.38756
382 2 0.535704 0.503327 0.380407
383 2 0.532095 0.500295 0.371557
384 2 0.534592 0.493985 0.364239
385 2 0.532037 0.497202 0.354866
386 2 0.536956 0.489985 0.35091
387 2 0.535882 0.480414 0.353907
388 2 0.540152 0.481727 0.363104
389 2 0.53441 0.483888 0.370795
390 2 0.538034 0.486079 0.38036
391 2 0.547731 0.484202 0.382983
392 2 0.555204 0.488632 0.378702
393 2 0.552696 0.496445 0.384593
394 2 0.560031 0.498549 0.39048
395 2 0.557202 0.508091 0.391458
396 1 0.476126 0.503025 0.419562
397 2 0.469844 0.507379 0.412847
398 2 0.465329 0.502231 0.405689
399 2 0.463483 0.506217 0.396814
400 2 0.455655 0.511072 0.391479
401 2 0.453922 0.502364 0.386445
402 2 0.444898 0.502833 0.390075
403 1 0.47992 0.509526 0.418208
404 1 0.47418 0.509188 0.423033
405 1 0.482393 0.516 0.419412
406 1 0.48427 0.504122 0.414483
407 1 0.493267 0.513437 0.413833
408 2 0.48973 0.514772 0.40461
409 2 0.490834 0.522095 0.39796
410 2 0.488761 0.531087 0.394591
411 2 0.492755 0.538626 0.389823
412 2 0.490551 0.548451 0.388819
413 2 0.482759 0.551146 0.382453
414 2 0.479069 0.560929 0.380555
415 2 0.478372 0.569377 0.385307
416 2 0.472512 0.574061 0.39214
417 2 0.464359 0.579297 0.3892
418 2 0.464161 0.586956 0.39507
419 2 0.4634 0.595905 0.391333
420 2 0.454529 0.594069 0.395741
421 2 0.45066 0.599159 0.403577
422 2 0.445382 0.59984 0.41181
423 2 0.436101 0.602395 0.4102
424 2 0.439386 0.599126 0.401664
425 2 0.432496 0.598495 0.394439
426 2 0.432839 0.605728 0.387983
427 2 0.426955 0.609122 0.395469
428 2 0.4217 0.617252 0.393426
429 2 0.412547 0.613175 0.393028
430 2 0.408626 0.613813 0.383563
431 2 0.411392 0.616951 0.37427
432 2 0.41147 0.608075 0.370212
433 2 0.41268 0.598473 0.367844
434 2 0.420719 0.593102 0.3652
435 2 0.429744 0.594507 0.369866
436 2 0.432581 0.584565 0.368329
437 2 0.43356 0.574825 0.369441
438 2 0.438799 0.567889 0.365631
439 2 0.440899 0.558025 0.365377
440 2 0.437629 0.551627 0.358191
441 2 0.435673 0.545535 0.350547
442 2 0.440581 0.542265 0.342512
443 2 0.444809 0.533753 0.344629
444 2 0.438244 0.526816 0.341511
445 2 0.43172 0.519684 0.344887
446 2 0.425335 0.52255 0.338032
447 2 0.425199 0.513256 0.334593
448 2 0.431722 0.505794 0.336404
449 2 0.433782 0.496052 0.334196
450 2 0.440459 0.498286 0.341056
451 2 0.447758 0.503513 0.336357
452 2 0.451038 0.505161 0.326987
453 2 0.447295 0.507082 0.317956
454 2 0.440499 0.502345 0.323331
455 2 0.43259 0.505024 0.31744
456 2 0.426572 0.512241 0.313625
457 2 0.435565 0.51654 0.313881
458 2 0.430852 0.52037 0.321741
459 2 0.439536 0.524838 0.323851
460 2 0.446196 0.530707 0.32801
461 2 0.446261 0.533252 0.318343
462 2 0.44994 0.541095 0.322841
463 2 0.456956 0.546696 0.327143
464 2 0.465296 0.544792 0.33233
465 2 0.469118 0.553794 0.329644
466 2 0.466916 0.559668 0.321925
467 2 0.462381 0.568563 0.321
468 2 0.46549 0.57347 0.313082
469 2 0.461886 0.582401 0.316024
470 2 0.470899 0.586932 0.31603
471 2 0.469263 0.58411 0.306158
472 2 0.46125 0.588934 0.303689
473 2 0.460436 0.598655 0.305755
474 2 0.453509 0.598536 0.312964
475 2 0.462578 0.598597 0.316629
476 2 0.456525 0.605287 0.32119
477 2 0.454036 0.59685 0.326092
478 2 0.452305 0.593906 0.335507
479 2 0.461926 0.593119 0.337231
480 2 0.4692 0.595523 0.330853
481 2 0.4697 0.604618 0.326251
482 2 0.468377 0.614296 0.324328
483 2 0.470756 0.615088 0.315005
484 2 0.479358 0.615629 0.31008
485 2 0.480555 0.605964 0.308287
486 2 0.475597 0.609037 0.300584
487 2 0.465861 0.612052 0.300333
488 2 0.457126 0.613733 0.304371
489 2 0.451687 0.619948 0.310009
490 2 0.44409 0.614798 0.31375
491 1 0.486875 0.510631 0.415004
492 1 0.491597 0.504379 0.411542
493 1 0.498798 0.509009 0.411676
494 1 0.497598 0.518236 0.415467
495 1 0.499357 0.501672 0.410235
496 2 0.49602 0.503772 0.401205
497 2 0.501257 0.501746 0.393335
498 2 0.507724 0.503931 0.385929
499 2 0.503931 0.504197 0.376707
500 2 0.497243 0.505612 0.369565
501 2 0.497047 0.49646 0.366055
502 2 0.48722 0.495076 0.368296
503 2 0.479461 0.497984 0.363008
504 2 0.475215 0.489969 0.366664
505 2 0.468261 0.483894 0.362956
506 2 0.464282 0.475576 0.366839
507 2 0.467701 0.466017 0.36552
508 2 0.474675 0.473041 0.36379
509 2 0.480413 0.465754 0.360572
510 1 0.489297 0.518437 0.417487
511 1 0.513042 0.502603 0.413088
512 2 0.516765 0.502296 0.403236
513 2 0.525436 0.503315 0.398182
514 2 0.532075 0.510471 0.399649
515 2 0.536849 0.509771 0.408705
516 1 0.503535 0.513528 0.413566
517 2 0.503721 0.519341 0.405352
518 2 0.50105 0.527505 0.39965
519 2 0.505031 0.526122 0.390416
520 2 0.503875 0.531433 0.381966
521 2 0.506695 0.523705 0.376259
522 2 0.513086 0.522956 0.368436
523 2 0.5151 0.522206 0.35888
524 2 0.51265 0.523485 0.349465
525 2 0.518853 0.517362 0.34527
526 2 0.521096 0.526237 0.341181
527 2 0.515129 0.53176 0.335183
528 2 0.523715 0.529473 0.33006
529 2 0.519323 0.530324 0.321108
530 2 0.522043 0.535622 0.312984
531 2 0.512186 0.537969 0.312344
532 2 0.515337 0.546902 0.308298
533 2 0.507959 0.551646 0.312828
534 2 0.509873 0.547018 0.321617
535 2 0.501151 0.551931 0.322109
536 2 0.49393 0.545069 0.32443
537 2 0.492668 0.53649 0.329448
538 2 0.493359 0.543189 0.336531
539 2 0.498552 0.535454 0.340019
540 2 0.505865 0.537874 0.346847
541 2 0.506555 0.545316 0.353642
542 2 0.503259 0.554796 0.355995
543 2 0.500675 0.553368 0.365569
544 2 0.4978 0.543934 0.367132
545 2 0.489866 0.546993 0.361384
546 2 0.485146 0.551213 0.368801
547 2 0.487154 0.559598 0.364452
548 2 0.482415 0.554536 0.357221
549 2 0.484002 0.551593 0.347281
550 1 0.511996 0.510344 0.414291
551 2 0.515415 0.516318 0.406664
552 2 0.520429 0.514434 0.39839
553 2 0.519665 0.511317 0.389196
554 2 0.516952 0.509349 0.379806
555 2 0.517795 0.502805 0.372753
556 2 0.516726 0.506435 0.363227
557 2 0.512272 0.507132 0.354081
558 2 0.521141 0.508262 0.350132
559 2 0.529089 0.50396 0.346102
560 2 0.537936 0.50901 0.34625
561 2 0.545252 0.508402 0.339001
562 2 0.540094 0.515001 0.332859
563 2 0.530595 0.515798 0.335882
564 2 0.520713 0.514973 0.334432
565 2 0.519107 0.505277 0.333404
566 2 0.523821 0.501838 0.325125
567 2 0.530185 0.496876 0.330397
568 2 0.530263 0.486675 0.330178
569 2 0.528888 0.478923 0.323771
570 2 0.524763 0.470474 0.319978
571 2 0.519478 0.462953 0.316346
572 2 0.523955 0.454513 0.312208
573 2 0.520194 0.457636 0.30367
574 2 0.524517 0.462381 0.296107
575 2 0.533237 0.462264 0.291479
576 2 0.540963 0.467943 0.29452
577 2 0.541547 0.477475 0.290637
578 2 0.545956 0.481782 0.298556
579 2 0.538804 0.479093 0.30463
580 2 0.538019 0.488796 0.302156
581 2 0.538754 0.490193 0.292487
582 2 0.528988 0.488629 0.292342
583 2 0.528323 0.481081 0.285819
584 2 0.532852 0.474617 0.279864
585 2 0.525775 0.471193 0.274447
586 2 0.521643 0.469999 0.265273
587 2 0.521451 0.46971 0.255094
588 2 0.52146 0.470229 0.245102
589 2 0.513576 0.469925 0.238672
590 2 0.503649 0.471113 0.240621
591 2 0.500186 0.473486 0.249568
592 2 0.505441 0.479048 0.255628
593 2 0.503492 0.488814 0.257587
594 2 0.494622 0.484773 0.256039
595 2 0.495201 0.49422 0.252079
596 2 0.500333 0.501954 0.248311
597 2 0.491664 0.506852 0.249424
598 2 0.486995 0.50929 0.258134
599 2 0.479275 0.503457 0.259731
600 2 0.478187 0.508493 0.268405
601 2 0.481014 0.507882 0.27851
602 2 0.48571 0.499655 0.275107
603 2 0.479793 0.492416 0.279468
604 2 0.47926 0.484808 0.272974
605 2 0.488065 0.479993 0.274796
606 2 0.487456 0.482332 0.284666
607 2 0.495419 0.480632 0.290531
608 2 0.499978 0.472176 0.293785
609 2 0.492639 0.468676 0.299494
610 2 0.498057 0.472563 0.306722
611 2 0.505143 0.466196 0.303421
612 2 0.498318 0.461032 0.308274
613 2 0.50225 0.452537 0.312365
614 2 0.500986 0.444601 0.306519
615 2 0.506272 0.449362 0.299647
616 2 0.507007 0.456988 0.29289
617 2 0.497569 0.456491 0.28978
618 2 0.488628 0.460131 0.289324
619 2 0.481061 0.466411 0.286875
620 2 0.473134 0.46956 0.281383
621 2 0.465207 0.471634 0.286461
622 2 0.460143 0.473249 0.294724
623 2 0.453749 0.480053 0.297379
624 2 0.455564 0.487256 0.303819
625 2 0.457538 0.489634 0.313639
626 2 0.464837 0.48769 0.320563
627 2 0.468147 0.49604 0.316436
628 2 0.47817 0.496051 0.314838
629 2 0.485021 0.501909 0.311133
630 2 0.482147 0.508224 0.303967
631 2 0.487358 0.508766 0.295579
632 2 0.484008 0.517695 0.298157
633 2 0.483899 0.518897 0.28809
634 1 0.505945 0.506891 0.411469
635 2 0.507983 0.508741 0.401447
636 2 0.505702 0.514267 0.394127
637 2 0.50618 0.516441 0.384262
638 2 0.497117 0.512183 0.384643
639 2 0.49108 0.520158 0.384187
640 2 0.490627 0.521883 0.374227
641 2 0.491581 0.527211 0.365286
642 2 0.493217 0.518804 0.360241
643 2 0.500493 0.520432 0.353963
644 2 0.501328 0.511924 0.348629
645 2 0.495469 0.515736 0.341413
646 2 0.488947 0.508385 0.343013
647 2 0.484714 0.512201 0.334763
648 2 0.485726 0.521647 0.337781
649 2 0.486512 0.522256 0.347584
650 1 0.517119 0.51395 0.418303
651 1 0.510086 0.5179 0.416979
652 1 0.518995 0.506757 0.416459
653 2 0.524532 0.51014 0.408704
654 1 0.525322 0.503692 0.421115
655 1 0.523279 0.510073 0.420833
656 1 0.521391 0.517399 0.422757
657 1 0.49473 0.524096 0.420229
658 2 0.491839 0.527278 0.411405
659 2 0.484243 0.530882 0.405814
660 2 0.478566 0.53512 0.398871
661 2 0.478401 0.534197 0.388809
662 2 0.474993 0.540641 0.381583
663 2 0.473478 0.533785 0.374896
664 2 0.46875 0.525347 0.372909
665 2 0.469931 0.523207 0.36322
666 2 0.473935 0.52756 0.355055
667 2 0.465758 0.528144 0.348567
668 2 0.465871 0.525795 0.338669
669 2 0.461229 0.525782 0.330175
670 2 0.466566 0.531508 0.323445
671 2 0.463127 0.527435 0.314967
672 2 0.455784 0.528489 0.308007
673 2 0.447931 0.523983 0.304701
674 2 0.440222 0.517755 0.302848
675 2 0.437679 0.526918 0.300536
676 2 0.430581 0.520096 0.297904
677 2 0.434827 0.517558 0.28903
678 2 0.429686 0.512724 0.281962
679 2 0.428869 0.508193 0.272936
680 2 0.422469 0.516202 0.272326
681 2 0.419112 0.524162 0.266597
682 2 0.409748 0.521011 0.264368
683 2 0.407445 0.521453 0.273994
684 2 0.404174 0.512773 0.269989
685 2 0.400546 0.506809 0.276942
686 2 0.407211 0.509017 0.283961
687 2 0.416459 0.504339 0.284575
688 2 0.425296 0.502026 0.288871
689 2 0.432206 0.496279 0.283963
690 2 0.435138 0.489201 0.289828
691 2 0.444271 0.491962 0.293401
692 2 0.444275 0.501838 0.294764
693 2 0.452747 0.504816 0.290864
694 2 0.451581 0.515023 0.289494
695 2 0.448312 0.523571 0.286026
696 2 0.457313 0.525709 0.290357
697 2 0.46718 0.524206 0.290297
698 2 0.472154 0.530856 0.296071
699 2 0.468978 0.533862 0.304838
700 2 0.474687 0.526163 0.307996
701 2 0.481023 0.520653 0.31306
702 2 0.471963 0.516997 0.3158
703 2 0.467941 0.510353 0.322813
704 2 0.47577 0.513189 0.327252
705 2 0.481161 0.505852 0.322956
706 1 0.486249 0.522729 0.422047
707 1 0.503679 0.520196 0.417213
708 1 0.514527 0.521756 0.421427
709 2 0.51953 0.524625 0.413144
710 2 0.526753 0.529889 0.408545
711 2 0.525693 0.53182 0.398945
712 2 0.527572 0.53229 0.38921
713 2 0.535235 0.531926 0.38244
714 2 0.534664 0.522446 0.383252
715 2 0.539436 0.522366 0.374591
716 2 0.547745 0.526746 0.376219
717 2 0.553231 0.522597 0.368934
718 2 0.552376 0.524171 0.358998
719 2 0.559893 0.528835 0.354127
720 2 0.562326 0.538613 0.355243
721 2 0.55232 0.540413 0.355899
722 2 0.54406 0.542347 0.350409
723 2 0.54543 0.552596 0.349734
724 2 0.549654 0.554255 0.34066
725 2 0.556807 0.556632 0.333808
726 2 0.563015 0.564247 0.333782
727 2 0.565326 0.56949 0.325779
728 2 0.559126 0.575905 0.32078
729 2 0.559559 0.584973 0.324509
730 2 0.567669 0.587396 0.329572
731 2 0.572539 0.578726 0.329175
732 2 0.576887 0.584506 0.336018
733 2 0.572525 0.582367 0.34459
734 2 0.571165 0.57394 0.339398
735 2 0.580214 0.571216 0.336898
736 2 0.583521 0.573664 0.34587
737 2 0.578558 0.566432 0.350011
738 2 0.579057 0.557221 0.354619
739 2 0.582972 0.547897 0.355588
740 2 0.574707 0.541786 0.356075
741 2 0.573198 0.547322 0.34833
742 2 0.563713 0.550963 0.348059
743 2 0.56193 0.546492 0.339493
744 2 0.570657 0.545592 0.335177
745 2 0.571453 0.549147 0.326353
746 2 0.566409 0.546472 0.318207
747 2 0.568274 0.53945 0.311403
748 2 0.564265 0.534565 0.303677
749 2 0.560661 0.52759 0.310252
750 2 0.557829 0.518626 0.312991
751 2 0.559485 0.510528 0.318511
752 2 0.564338 0.506944 0.310442
753 2 0.567437 0.507589 0.301162
754 2 0.575414 0.501481 0.301406
755 2 0.584463 0.498054 0.297636
756 2 0.583151 0.504796 0.290867
757 2 0.578029 0.498227 0.284836
758 2 0.570052 0.503809 0.286661
759 2 0.568908 0.499209 0.277944
760 2 0.574897 0.495461 0.270489
761 2 0.569041 0.48726 0.271865
762 2 0.576702 0.485018 0.265666
763 2 0.575392 0.476688 0.260716
764 2 0.573342 0.468233 0.265785
765 2 0.579094 0.467491 0.274155
766 2 0.587588 0.468156 0.279079
767 2 0.590469 0.466339 0.269609
768 2 0.586694 0.467998 0.260082
769 2 0.591857 0.476177 0.25694
770 2 0.601647 0.474144 0.256977
771 2 0.601215 0.464897 0.254333
772 2 0.6029 0.462682 0.2445
773 2 0.599831 0.455665 0.238053
774 2 0.602801 0.449104 0.245078
775 2 0.605819 0.445908 0.235755
776 2 0.614754 0.440291 0.234812
777 2 0.622155 0.433776 0.234128
778 2 0.629384 0.441279 0.23375
779 2 0.628623 0.440277 0.22391
780 2 0.628043 0.449554 0.220233
781 2 0.634094 0.457605 0.218717
782 2 0.634548 0.467903 0.217686
783 2 0.628817 0.470009 0.209527
784 2 0.623474 0.461945 0.211388
785 2 0.614581 0.462844 0.215199
786 2 0.613418 0.456342 0.222627
787 1 0.507198 0.524489 0.421204
788 1 0.501109 0.526962 0.422303
789 2 0.502154 0.532707 0.414125
790 2 0.500857 0.538377 0.405942
791 2 0.504391 0.545347 0.399477
792 2 0.504982 0.542554 0.390016
793 2 0.503093 0.552451 0.390451
794 2 0.504739 0.55149 0.380906
795 2 0.494562 0.551531 0.378983
796 1 0.49598 0.461284 0.437751
797 1 0.491919 0.45978 0.442104
798 1 0.504468 0.461535 0.438017
799 1 0.476776 0.470929 0.435468
800 1 0.473916 0.476193 0.431929
801 1 0.47092 0.474076 0.438311
802 2 0.466925 0.467011 0.432661
803 1 0.476709 0.479279 0.426805
804 1 0.466025 0.478651 0.440391
805 2 0.459079 0.475989 0.433028
806 2 0.45837 0.471141 0.424665
807 2 0.457748 0.463575 0.418756
808 2 0.462554 0.454581 0.418867
809 2 0.459317 0.449288 0.410774
810 2 0.461572 0.441236 0.415956
811 2 0.458908 0.433213 0.411
812 2 0.450523 0.428631 0.413772
813 2 0.449317 0.421384 0.406893
814 2 0.445138 0.414482 0.412719
815 2 0.443598 0.418424 0.4214
816 2 0.434819 0.420992 0.425182
817 2 0.436844 0.425412 0.434109
818 2 0.427311 0.429438 0.432648
819 2 0.426391 0.433075 0.423139
820 2 0.422094 0.433396 0.413776
821 2 0.419691 0.442303 0.417352
822 2 0.42623 0.450263 0.417855
823 2 0.430021 0.443167 0.411679
824 2 0.422114 0.447497 0.407299
825 2 0.418324 0.444731 0.398635
826 2 0.422062 0.435466 0.396602
827 2 0.423609 0.426963 0.4014
828 2 0.420414 0.418677 0.396628
829 2 0.412152 0.413282 0.394437
830 2 0.408374 0.417001 0.403457
831 2 0.407022 0.422211 0.411721
832 2 0.415757 0.424202 0.417077
833 2 0.415141 0.414217 0.417237
834 1 0.480623 0.472504 0.430019
835 1 0.480313 0.465266 0.440113
836 2 0.475052 0.459831 0.433289
837 2 0.475039 0.458004 0.423335
838 2 0.476589 0.457309 0.413454
839 2 0.475094 0.453502 0.404444
840 2 0.480478 0.450062 0.397495
841 2 0.480281 0.448032 0.387436
842 2 0.486722 0.439913 0.386855
843 2 0.491145 0.430819 0.38909
844 2 0.481122 0.429202 0.388469
845 2 0.472872 0.426547 0.393053
846 2 0.463975 0.423263 0.389361
847 2 0.455495 0.428529 0.388022
848 2 0.449759 0.434685 0.38289
849 2 0.444046 0.442275 0.380307
850 2 0.434897 0.438104 0.379934
851 2 0.427516 0.442047 0.374291
852 2 0.42065 0.437108 0.3689
853 2 0.424036 0.428319 0.364561
854 2 0.426385 0.426771 0.354958
855 2 0.417932 0.424578 0.349882
856 2 0.4095 0.430021 0.350519
857 2 0.416085 0.435307 0.344845
858 2 0.407969 0.440245 0.345598
859 2 0.408941 0.439109 0.3357
860 2 0.401212 0.444342 0.33306
861 2 0.407381 0.451025 0.337037
862 2 0.415403 0.45076 0.331576
863 2 0.423941 0.454514 0.33487
864 2 0.420853 0.463669 0.332393
865 2 0.421004 0.468166 0.34176
866 2 0.417702 0.465475 0.351026
867 2 0.412837 0.465268 0.359893
868 2 0.403711 0.461689 0.358267
869 2 0.394017 0.460245 0.359812
870 2 0.39405 0.451317 0.355386
871 2 0.401353 0.450153 0.347904
872 2 0.397141 0.441516 0.346701
873 2 0.392175 0.446573 0.33925
874 2 0.387245 0.448329 0.330763
875 2 0.384109 0.457337 0.329609
876 2 0.375148 0.46127 0.327355
877 2 0.366359 0.464213 0.323294
878 2 0.35961 0.460682 0.330149
879 2 0.359628 0.45452 0.337841
880 2 0.355743 0.445245 0.339315
881 2 0.352921 0.438189 0.333164
882 2 0.350736 0.428598 0.331624
883 2 0.35702 0.422004 0.327822
884 2 0.353712 0.427281 0.320065
885 2 0.362218 0.427014 0.314798
886 2 0.3685 0.434003 0.311239
887 2 0.368314 0.433284 0.301264
888 2 0.375131 0.441182 0.301101
889 2 0.369461 0.443385 0.293626
890 2 0.367531 0.450579 0.300778
891 2 0.359955 0.454401 0.294938
892 2 0.355247 0.463273 0.294661
893 2 0.349487 0.467821 0.300467
894 2 0.341207 0.470979 0.296629
895 1 0.46903 0.480195 0.434715
896 1 0.474148 0.468709 0.44134
897 1 0.491274 0.472992 0.42387
898 2 0.486382 0.465987 0.41844
899 2 0.490254 0.461642 0.410152
900 2 0.489014 0.464788 0.400738
901 2 0.485867 0.470843 0.393585
902 2 0.489056 0.467674 0.384775
903 2 0.493768 0.469881 0.376385
904 2 0.498628 0.475429 0.369198
905 2 0.50256 0.479874 0.360881
906 2 0.508077 0.480973 0.352584
907 2 0.502389 0.475765 0.346246
908 2 0.4963 0.474339 0.338567
909 2 0.496759 0.464366 0.340199
910 2 0.504592 0.463203 0.346752
911 2 0.505393 0.457624 0.35434
912 2 0.51224 0.454985 0.36047
913 2 0.516133 0.455603 0.370063
914 2 0.517034 0.4491 0.377548
915 2 0.507366 0.446262 0.378977
916 2 0.503188 0.446372 0.369568
917 2 0.494329 0.441344 0.37028
918 2 0.501463 0.436046 0.365597
919 2 0.497212 0.429188 0.359259