ITEM: TIMESTEP
3000
ITEM: NUMBER OF ATOMS
1226
ITEM: BOX BOUNDS pp pp ff
-50 50
-50 50
-50 50
ITEM: ATOMS id type xs ys zs
1 1 0.495217 0.476658 0.419634
2 1 0.488778 0.4779 0.420266
3 1 0.502654 0.475823 0.419761
4 2 0.499425 0.471436 0.411154
5 1 0.509259 0.479182 0.418907
6 1 0.474952 0.495437 0.420808
7 1 0.47971 0.482925 0.421939
8 1 0.479433 0.490359 0.418757
9 1 0.480913 0.497963 0.415923
10 1 0.484634 0.484365 0.418111
11 1 0.491379 0.483282 0.416025
12 1 0.485709 0.490935 0.414799
13 1 0.493457 0.489064 0.412906
14 1 0.494107 0.495968 0.410926
15 1 0.487719 0.497635 0.412614
16 1 0.498489 0.48111 0.416252
17 1 0.515537 0.4813 0.419819
18 1 0.501611 0.487129 0.412946
19 1 0.501701 0.494302 0.410871
20 1 0.50923 0.49217 0.412393
21 1 0.507433 0.48393 0.415455
22 1 0.513746 0.487482 0.415612
23 1 0.514951 0.495105 0.413929
24 1 0.507172 0.499228 0.411084
25 1 0.521237 0.48513 0.421342
26 1 0.519625 0.491563 0.417763
27 1 0.525051 0.495464 0.420835
28 1 0.519829 0.49969 0.4166
29 1 0.476126 0.503025 0.419562
30 1 0.47992 0.509526 0.418208
31 1 0.47418 0.509188 0.423033
32 1 0.482393 0.516 0.419412
33 1 0.48427 0.504122 0.414483
34 1 0.493267 0.513437 0.413833
35 1 0.486875 0.510631 0.415004
36 1 0.491597 0.504379 0.411542
37 1 0.498798 0.509009 0.411676
38 2 0.500432 0.513222 0.402769
39 1 0.497598 0.518236 0.415467
40 1 0.499357 0.501672 0.410235
41 1 0.489297 0.518437 0.417487
42 1 0.513042 0.502603 0.413088
43 1 0.503535 0.513528 0.413566
44 1 0.511996 0.510344 0.414291
45 1 0.505945 0.506891 0.411469
46 1 0.517119 0.51395 0.418303
47 1 0.510086 0.5179 0.416979
48 1 0.518995 0.506757 0.416459
49 1 0.525322 0.503692 0.421115
50 1 0.523279 0.510073 0.420833
51 1 0.521391 0.517399 0.422757
52 1 0.49473 0.524096 0.420229
53 1 0.486249 0.522729 0.422047
54 1 0.503679 0.520196 0.417213
55 1 0.514527 0.521756 0.421427
56 1 0.507198 0.524489 0.421204
57 1 0.501109 0.526962 0.422303
58 1 0.49598 0.461284 0.437751
59 1 0.491919 0.45978 0.442104
60 1 0.504468 0.461535 0.438017
61 1 0.476776 0.470929 0.435468
62 1 0.473916 0.476193 0.431929
63 1 0.47092 0.474076 0.438311
64 1 0.476709 0.479279 0.426805
65 1 0.466025 0.478651 0.440391
66 1 0.480623 0.472504 0.430019
67 1 0.480313 0.465266 0.440113
68 1 0.46903 0.480195 0.434715
69 1 0.474148 0.468709 0.44134
70 1 0.491274 0.472992 0.42387
71 1 0.483611 0.467588 0.433674
72 1 0.48305 0.476292 0.424437
73 1 0.486421 0.463129 0.438674
74 1 0.48672 0.470456 0.428249
75 1 0.491086 0.46476 0.433939
76 1 0.493793 0.467393 0.429468
77 1 0.499218 0.470483 0.425121
78 1 0.499909 0.464335 0.432922
79 1 0.506692 0.472471 0.423554
80 1 0.511226 0.46262 0.438519
81 1 0.503321 0.467363 0.428649
82 1 0.508103 0.465495 0.432472
83 1 0.515512 0.46673 0.434097
84 1 0.513025 0.475247 0.42319
85 1 0.511418 0.469316 0.428821
86 1 0.517633 0.472502 0.428524
87 1 0.51797 0.464333 0.439724
88 1 0.519835 0.478206 0.424835
89 1 0.521534 0.469984 0.435077
90 1 0.523569 0.47548 0.430725
91 1 0.52707 0.473601 0.436222
92 1 0.532866 0.478638 0.438724
93 1 0.525112 0.467909 0.440958
94 1 0.529355 0.479821 0.432763
95 1 0.459769 0.495808 0.441021
96 1 0.474254 0.488186 0.423668
97 1 0.471886 0.483983 0.428195
98 1 0.462472 0.490838 0.437589
99 1 0.462543 0.49946 0.435459
100 1 0.467612 0.487603 0.431108
101 1 0.470279 0.493543 0.425978
102 1 0.46543 0.493499 0.431646
103 1 0.464025 0.484438 0.438213
104 1 0.466968 0.498984 0.4291
105 1 0.526249 0.488801 0.42372
106 1 0.525768 0.482249 0.426514
107 1 0.535094 0.485045 0.436765
108 1 0.530614 0.493127 0.427017
109 1 0.531112 0.485799 0.43059
110 1 0.53486 0.491292 0.433097
111 1 0.538446 0.496238 0.437433
112 1 0.534522 0.49753 0.431076
113 1 0.529415 0.499629 0.424826
114 1 0.538483 0.489369 0.439588
115 1 0.460047 0.503626 0.440154
116 1 0.476515 0.5159 0.423858
117 1 0.471014 0.501549 0.424411
118 1 0.461619 0.509882 0.43927
119 1 0.463533 0.505533 0.434164
120 2 0.457279 0.508343 0.427289
121 1 0.468273 0.507122 0.428307
122 1 0.471361 0.514503 0.428347
123 1 0.465934 0.511569 0.433338
124 1 0.464188 0.516497 0.439278
125 1 0.4683 0.518281 0.434246
126 1 0.528553 0.509192 0.425704
127 1 0.537017 0.503094 0.435027
128 1 0.532324 0.503942 0.428647
129 1 0.530574 0.515765 0.431246
130 1 0.533935 0.509854 0.432211
131 1 0.535169 0.515073 0.437193
132 1 0.52649 0.516439 0.426564
133 1 0.538606 0.508721 0.438883
134 1 0.540962 0.502408 0.441775
135 1 0.471748 0.525039 0.43573
136 1 0.467307 0.523219 0.440004
137 1 0.474195 0.520905 0.429925
138 1 0.471162 0.529388 0.441818
139 1 0.476287 0.529846 0.436583
140 1 0.478401 0.526659 0.430733
141 1 0.479745 0.52213 0.425325
142 2 0.474125 0.528777 0.420753
143 1 0.480464 0.534609 0.439499
144 1 0.485075 0.527682 0.427147
145 1 0.491152 0.528057 0.424968
146 1 0.483159 0.53169 0.43337
147 1 0.487733 0.53617 0.436642
148 1 0.489996 0.5328 0.430819
149 1 0.495261 0.536228 0.434279
150 2 0.493306 0.542951 0.427049
151 1 0.496338 0.531499 0.427363
152 1 0.502685 0.532514 0.428717
153 1 0.509377 0.534068 0.432566
154 1 0.508244 0.529528 0.426509
155 1 0.514223 0.535951 0.437475
156 1 0.502161 0.536292 0.433754
157 1 0.514391 0.527141 0.426262
158 1 0.515063 0.531489 0.431667
159 1 0.518892 0.536362 0.442023
160 1 0.507771 0.538433 0.438326
161 1 0.527155 0.521825 0.431862
162 1 0.531668 0.521376 0.436636
163 1 0.520535 0.531982 0.436617
164 1 0.520595 0.523356 0.426707
165 1 0.522034 0.527435 0.431963
166 1 0.52685 0.526782 0.4365
167 1 0.525568 0.53189 0.44173
168 1 0.531502 0.526655 0.442224
169 1 0.49319 0.539817 0.440667
170 1 0.486191 0.538573 0.441811
171 1 0.500559 0.539204 0.439257
172 1 0.480599 0.457082 0.457137
173 1 0.474258 0.459595 0.458984
174 1 0.475771 0.461133 0.452384
175 1 0.482024 0.458774 0.450425
176 1 0.49599 0.456497 0.447423
177 1 0.489768 0.457005 0.44867
178 1 0.486788 0.455482 0.454991
179 1 0.493947 0.45417 0.454169
180 1 0.495962 0.45209 0.459676
181 1 0.484925 0.460527 0.44471
182 1 0.489787 0.452679 0.460742
183 1 0.507735 0.458928 0.443362
184 1 0.500521 0.45848 0.442964
185 1 0.500147 0.453997 0.453367
186 1 0.503633 0.456159 0.448522
187 1 0.502382 0.452076 0.459332
188 1 0.507585 0.454025 0.455696
189 1 0.514724 0.460275 0.444377
190 1 0.5138 0.455244 0.455857
191 1 0.510705 0.456948 0.449315
192 1 0.51778 0.459161 0.449711
193 1 0.516374 0.45451 0.460877
194 1 0.520732 0.458332 0.45523
195 1 0.527133 0.461342 0.456964
196 1 0.522503 0.456918 0.461452
197 1 0.456953 0.479646 0.457809
198 1 0.459108 0.48055 0.451547
199 1 0.45972 0.473619 0.459921
200 1 0.46156 0.474612 0.453754
201 1 0.463735 0.475649 0.447431
202 1 0.464832 0.468751 0.456294
203 1 0.468623 0.472306 0.443604
204 1 0.478464 0.462862 0.445955
205 1 0.466603 0.470002 0.450237
206 1 0.472604 0.46636 0.447699
207 1 0.470188 0.464537 0.453792
208 1 0.46839 0.463469 0.460305
209 1 0.524656 0.462335 0.45069
210 1 0.530535 0.472092 0.442448
211 1 0.535427 0.4762 0.445187
212 1 0.533593 0.471094 0.449084
213 1 0.527989 0.466912 0.446639
214 1 0.52144 0.463124 0.445416
215 1 0.536437 0.470797 0.455477
216 1 0.530394 0.465946 0.452561
217 1 0.53307 0.465378 0.458571
218 1 0.53836 0.475763 0.451495
219 1 0.540354 0.47491 0.457892
220 1 0.542511 0.480573 0.454862
221 1 0.460045 0.488688 0.443148
222 1 0.456736 0.493703 0.447274
223 1 0.455371 0.485174 0.456093
224 1 0.454755 0.491158 0.453659
225 1 0.457448 0.48693 0.449259
226 1 0.452129 0.49647 0.459345
227 1 0.452629 0.489857 0.460843
228 1 0.454278 0.497414 0.452805
229 1 0.461053 0.482504 0.445194
230 1 0.537519 0.482426 0.442692
231 1 0.541203 0.494526 0.443435
232 1 0.540106 0.482127 0.448353
233 1 0.54365 0.487012 0.452181
234 1 0.541075 0.488167 0.445874
235 1 0.546381 0.492116 0.456777
236 1 0.544351 0.494057 0.4497
237 1 0.545386 0.485288 0.458571
238 1 0.54825 0.497191 0.460358
239 1 0.546305 0.499101 0.45448
240 1 0.457071 0.501016 0.445749
241 1 0.458095 0.5079 0.445372
242 1 0.452839 0.503129 0.457404
243 1 0.455032 0.5039 0.451404
244 1 0.453763 0.5095 0.45664
245 1 0.456645 0.511416 0.45015
246 1 0.45606 0.515815 0.455602
247 1 0.460321 0.514686 0.444813
248 1 0.459051 0.51865 0.450646
249 1 0.543903 0.500806 0.447746
250 1 0.539255 0.513993 0.44318
251 1 0.54226 0.50807 0.445924
252 1 0.544633 0.505495 0.451047
253 1 0.54748 0.505442 0.45848
254 1 0.542453 0.513695 0.449741
255 1 0.545325 0.511223 0.454725
256 1 0.542696 0.518719 0.455152
257 1 0.54558 0.515757 0.460388
258 1 0.45702 0.520885 0.459062
259 1 0.460759 0.525974 0.456421
260 1 0.463007 0.521018 0.444893
261 1 0.475214 0.533826 0.443845
262 1 0.470365 0.532454 0.44823
263 1 0.470428 0.535968 0.455024
264 1 0.466614 0.527705 0.446283
265 1 0.462358 0.524649 0.450572
266 1 0.46581 0.530538 0.453151
267 1 0.47448 0.537123 0.450911
268 1 0.467674 0.535701 0.460483
269 1 0.462935 0.531301 0.460568
270 1 0.480837 0.538264 0.445448
271 1 0.535695 0.520731 0.442682
272 1 0.535327 0.525758 0.447865
273 1 0.533954 0.530473 0.452508
274 1 0.530088 0.531277 0.446987
275 1 0.528806 0.53593 0.453183
276 1 0.524706 0.535724 0.446781
277 1 0.532979 0.534372 0.457998
278 1 0.537386 0.529655 0.458611
279 1 0.538896 0.524796 0.453913
280 1 0.539439 0.519557 0.448376
281 1 0.542494 0.522872 0.460083
282 1 0.473013 0.539786 0.459247
283 1 0.478484 0.54199 0.457336
284 1 0.479981 0.540766 0.451717
285 1 0.484808 0.54431 0.45565
286 1 0.486208 0.541928 0.448793
287 1 0.491715 0.545036 0.45279
288 1 0.492379 0.54244 0.4462
289 1 0.49603 0.547234 0.457736
290 1 0.489784 0.546856 0.459588
291 1 0.498409 0.545327 0.451622
292 1 0.499482 0.542509 0.445269
293 1 0.513269 0.539634 0.443578
294 1 0.50312 0.546921 0.45655
295 1 0.50499 0.544816 0.450783
296 1 0.505939 0.541714 0.444232
297 1 0.512515 0.542237 0.448876
298 1 0.516478 0.543024 0.453712
299 1 0.510072 0.545872 0.455719
300 1 0.519076 0.539742 0.448476
301 1 0.514499 0.546174 0.460191
302 1 0.507522 0.547914 0.461213
303 1 0.527314 0.539201 0.459261
304 1 0.521437 0.54293 0.459136
305 1 0.522993 0.539872 0.453569
306 1 0.477676 0.456262 0.46372
307 1 0.468654 0.459525 0.471987
308 1 0.474293 0.456314 0.46969
309 1 0.473894 0.455052 0.475959
310 1 0.470956 0.459787 0.464874
311 1 0.468909 0.457987 0.47893
312 1 0.479593 0.452668 0.475176
313 1 0.480786 0.453419 0.469074
314 1 0.484077 0.453779 0.462972
315 1 0.487605 0.451336 0.467628
316 1 0.49507 0.450456 0.46644
317 1 0.485792 0.450454 0.474154
318 1 0.492438 0.449533 0.472221
319 1 0.491383 0.448402 0.478888
320 1 0.497618 0.447934 0.477808
321 1 0.499666 0.449105 0.47132
322 1 0.509289 0.452095 0.462144
323 1 0.501772 0.450478 0.464958
324 1 0.507239 0.449915 0.46952
325 1 0.513835 0.451945 0.467228
326 1 0.512202 0.449905 0.473653
327 1 0.505044 0.448564 0.475455
328 1 0.516935 0.450341 0.478976
329 1 0.51914 0.452397 0.473096
330 1 0.510573 0.448483 0.480239
331 1 0.519954 0.453876 0.467514
332 1 0.528848 0.460549 0.462798
333 1 0.522909 0.453099 0.478414
334 1 0.525744 0.455479 0.473886
335 1 0.525559 0.456898 0.467685
336 1 0.530577 0.459793 0.469927
337 1 0.531114 0.458568 0.476566
338 1 0.459498 0.470893 0.466277
339 1 0.45458 0.477644 0.470314
340 1 0.456947 0.471691 0.47315
341 1 0.453805 0.475966 0.477031
342 1 0.456103 0.477234 0.464595
343 1 0.459604 0.467469 0.476963
344 1 0.461381 0.466869 0.470713
345 1 0.464131 0.462646 0.474666
346 1 0.463206 0.467947 0.462428
347 1 0.465474 0.463842 0.46686
348 1 0.463395 0.461959 0.480622
349 1 0.537934 0.469279 0.461781
350 1 0.534565 0.464316 0.46523
351 1 0.535371 0.462911 0.472161
352 1 0.536563 0.462745 0.478599
353 1 0.539023 0.468461 0.468169
354 1 0.544079 0.479138 0.461741
355 1 0.54221 0.47358 0.46543
356 1 0.540225 0.467623 0.474261
357 1 0.543484 0.472727 0.47215
358 1 0.544491 0.472198 0.478519
359 1 0.54584 0.478751 0.468653
360 1 0.546932 0.478162 0.475482
361 1 0.454045 0.483517 0.462406
362 1 0.450385 0.496016 0.465899
363 1 0.451176 0.482292 0.475103
364 1 0.450797 0.489727 0.467661
365 1 0.452357 0.483437 0.468577
366 1 0.449628 0.488967 0.473526
367 1 0.448215 0.494478 0.478028
368 1 0.449041 0.496118 0.472375
369 1 0.449425 0.487349 0.47946
370 1 0.548303 0.490382 0.463127
371 1 0.548699 0.483911 0.472771
372 1 0.547304 0.484385 0.465941
373 1 0.549714 0.489903 0.469599
374 1 0.550928 0.49017 0.476764
375 1 0.551439 0.496367 0.474155
376 1 0.549812 0.483915 0.479522
377 1 0.549965 0.495875 0.467217
378 1 0.55223 0.495333 0.480612
379 1 0.453365 0.515118 0.462165
380 1 0.449482 0.503 0.470176
381 1 0.448033 0.501791 0.476473
382 1 0.451817 0.508519 0.462572
383 1 0.450702 0.501804 0.464074
384 1 0.452192 0.515001 0.468303
385 1 0.450195 0.508912 0.46929
386 1 0.450382 0.514483 0.475003
387 1 0.448862 0.50781 0.475777
388 1 0.548115 0.509867 0.462495
389 1 0.552036 0.501466 0.478036
390 1 0.550999 0.502015 0.470988
391 1 0.549377 0.503292 0.464779
392 1 0.551276 0.507735 0.475924
393 1 0.549855 0.508883 0.469107
394 1 0.549512 0.514114 0.47423
395 1 0.547926 0.51519 0.467683
396 1 0.55081 0.512505 0.480672
397 1 0.549126 0.518565 0.47954
398 2 0.558675 0.520201 0.477242
399 1 0.451233 0.519557 0.479449
400 1 0.452934 0.520146 0.472443
401 1 0.458779 0.526942 0.462933
402 1 0.455221 0.521221 0.465809
403 1 0.454391 0.525135 0.476035
404 1 0.45658 0.52597 0.469852
405 1 0.458888 0.531063 0.474145
406 1 0.460846 0.53167 0.467739
407 1 0.460553 0.534345 0.47925
408 1 0.462677 0.535552 0.473311
409 1 0.465533 0.536152 0.466437
410 1 0.536154 0.533497 0.463723
411 1 0.538256 0.534773 0.474655
412 1 0.534593 0.536981 0.469792
413 1 0.531335 0.537931 0.463329
414 1 0.536047 0.538108 0.480621
415 1 0.5469 0.520393 0.47159
416 1 0.539613 0.531323 0.469517
417 1 0.544922 0.520852 0.465031
418 1 0.540875 0.527604 0.463979
419 1 0.542856 0.529307 0.475841
420 1 0.543401 0.526165 0.469911
421 1 0.546065 0.524121 0.477177
422 1 0.476988 0.543584 0.46389
423 1 0.47146 0.540736 0.465446
424 1 0.468353 0.540084 0.471278
425 1 0.474336 0.543844 0.470514
426 1 0.471837 0.543672 0.476911
427 1 0.477861 0.546787 0.475302
428 1 0.46548 0.539431 0.478075
429 1 0.480498 0.546752 0.469093
430 1 0.483228 0.54572 0.461732
431 1 0.485375 0.549422 0.473142
432 1 0.48747 0.54806 0.466161
433 1 0.494022 0.549027 0.464568
434 1 0.491868 0.55012 0.47076
435 1 0.496403 0.551664 0.475645
436 1 0.498971 0.55059 0.469392
437 1 0.48942 0.551003 0.477287
438 1 0.482461 0.549246 0.479004
439 1 0.500754 0.549088 0.463189
440 1 0.503774 0.551203 0.474174
441 1 0.505784 0.549887 0.467566
442 1 0.512521 0.548335 0.466336
443 1 0.510569 0.550217 0.473255
444 1 0.517223 0.548077 0.47191
445 1 0.513879 0.550563 0.478529
446 1 0.507512 0.551946 0.480106
447 1 0.50106 0.552543 0.479958
448 1 0.518737 0.54573 0.465337
449 1 0.520732 0.547501 0.477402
450 1 0.532611 0.540105 0.475207
451 1 0.525005 0.542805 0.464913
452 1 0.523211 0.54529 0.470463
453 1 0.529509 0.541469 0.470083
454 1 0.527075 0.544508 0.476382
455 1 0.479089 0.451624 0.481375
456 1 0.473681 0.45407 0.482387
457 1 0.470772 0.455172 0.490954
458 1 0.468536 0.457289 0.485206
459 1 0.464891 0.459154 0.493039
460 1 0.475024 0.452487 0.495922
461 1 0.476066 0.452168 0.488982
462 1 0.469361 0.455713 0.497523
463 1 0.464766 0.459047 0.499439
464 1 0.463634 0.461126 0.487369
465 1 0.484975 0.449567 0.481164
466 1 0.481074 0.449762 0.493707
467 1 0.482538 0.449761 0.486923
468 1 0.489937 0.447889 0.485631
469 1 0.48711 0.447866 0.492199
470 1 0.493426 0.446816 0.490514
471 1 0.495874 0.447325 0.48387
472 1 0.492999 0.446511 0.497018
473 1 0.498818 0.446363 0.494626
474 1 0.486348 0.448066 0.498598
475 1 0.501001 0.446559 0.488755
476 1 0.503987 0.447389 0.481802
477 1 0.508306 0.447667 0.486615
478 1 0.505422 0.446775 0.49328
479 1 0.512626 0.447814 0.492337
480 1 0.515138 0.449268 0.485205
481 1 0.517889 0.449299 0.496835
482 1 0.518509 0.449691 0.490361
483 1 0.51087 0.447494 0.497936
484 1 0.533123 0.458558 0.483573
485 1 0.527421 0.454854 0.482076
486 1 0.521836 0.451656 0.484532
487 1 0.524966 0.452488 0.49131
488 1 0.529433 0.455191 0.494904
489 1 0.523544 0.451231 0.497637
490 1 0.529227 0.455467 0.48803
491 1 0.533699 0.45849 0.491275
492 1 0.533224 0.457532 0.499601
493 1 0.455653 0.47173 0.481371
494 1 0.459108 0.466145 0.483475
495 1 0.452787 0.475815 0.485182
496 1 0.453101 0.473988 0.491874
497 1 0.455707 0.470198 0.487633
498 1 0.459366 0.465297 0.49007
499 1 0.455739 0.469263 0.495117
500 1 0.450353 0.480355 0.488498
501 1 0.450638 0.478729 0.495313
502 1 0.460388 0.46372 0.496131
503 1 0.537286 0.461633 0.496823
504 1 0.537588 0.462501 0.485049
505 1 0.538648 0.462953 0.491345
506 1 0.540896 0.466912 0.480903
507 1 0.547798 0.477416 0.481993
508 1 0.545099 0.472157 0.485435
509 1 0.541823 0.466974 0.488017
510 1 0.542305 0.467084 0.496139
511 1 0.545317 0.471227 0.492753
512 1 0.548012 0.47574 0.496097
513 1 0.548306 0.476902 0.488869
514 1 0.545578 0.471263 0.49998
515 1 0.450775 0.480994 0.482096
516 1 0.447611 0.492112 0.48461
517 1 0.448675 0.484246 0.493333
518 1 0.448487 0.486528 0.48601
519 2 0.439568 0.482229 0.483759
520 1 0.447081 0.491584 0.491937
521 1 0.446215 0.496242 0.496142
522 1 0.447404 0.488884 0.497758
523 1 0.446581 0.49778 0.489251
524 1 0.447218 0.499438 0.482838
525 1 0.550368 0.481364 0.494277
526 1 0.551929 0.488853 0.483344
527 1 0.550202 0.482866 0.486446
528 1 0.552097 0.48691 0.490893
529 1 0.552744 0.49289 0.488062
530 1 0.553449 0.493015 0.494333
531 1 0.553429 0.498928 0.491801
532 1 0.553914 0.49809 0.498469
533 1 0.552392 0.487598 0.497899
534 1 0.552938 0.499738 0.485441
535 1 0.449017 0.512597 0.481286
536 1 0.447414 0.506134 0.482759
537 1 0.446443 0.502937 0.494062
538 1 0.446755 0.504256 0.488118
539 1 0.447853 0.511426 0.487642
540 1 0.449191 0.51664 0.491781
541 1 0.447426 0.510196 0.493791
542 1 0.448329 0.514912 0.497654
543 1 0.450177 0.518419 0.485651
544 1 0.553533 0.504529 0.496677
545 1 0.552518 0.505699 0.482976
546 1 0.55312 0.505624 0.489146
547 1 0.552971 0.50981 0.493639
548 1 0.552022 0.511538 0.487152
549 1 0.550869 0.517346 0.492927
550 1 0.550212 0.517297 0.485548
551 1 0.551698 0.514891 0.498459
552 1 0.456301 0.529352 0.480934
553 1 0.452775 0.523989 0.483633
554 1 0.450931 0.522159 0.496775
555 1 0.451646 0.523331 0.490253
556 1 0.455144 0.528797 0.487727
557 1 0.459206 0.533918 0.485564
558 1 0.457614 0.532819 0.49289
559 1 0.454061 0.527779 0.49489
560 1 0.456477 0.531813 0.49971
561 1 0.461086 0.536835 0.497262
562 1 0.461827 0.537282 0.491122
563 1 0.540332 0.53397 0.481153
564 1 0.538748 0.536834 0.492799
565 1 0.540647 0.534243 0.487392
566 1 0.549729 0.521068 0.498037
567 1 0.544241 0.528657 0.482972
568 1 0.547496 0.523471 0.484537
569 1 0.548386 0.522721 0.490478
570 1 0.545218 0.52879 0.489256
571 1 0.542523 0.532839 0.493895
572 1 0.546103 0.52746 0.49554
573 1 0.463581 0.538587 0.484361
574 1 0.476064 0.546843 0.481552
575 1 0.469496 0.543022 0.483177
576 1 0.465641 0.541147 0.49529
577 1 0.467133 0.542028 0.48963
578 1 0.471853 0.545889 0.493394
579 1 0.473178 0.545916 0.487407
580 1 0.477637 0.548715 0.492537
581 1 0.476356 0.548392 0.498651
582 1 0.479899 0.549274 0.486166
583 1 0.469556 0.544526 0.499257
584 1 0.483059 0.550915 0.496085
585 1 0.484517 0.551169 0.490019
586 1 0.48685 0.55127 0.483634
587 1 0.493978 0.552517 0.482741
588 1 0.49154 0.552701 0.488663
589 1 0.496206 0.55339 0.493677
590 1 0.49 0.552722 0.494781
591 1 0.498913 0.55326 0.486603
592 1 0.501254 0.55379 0.498794
593 1 0.50339 0.553583 0.492246
594 1 0.505146 0.55301 0.485613
595 1 0.509936 0.552691 0.491137
596 1 0.517133 0.550541 0.489263
597 1 0.512219 0.551685 0.485325
598 1 0.514588 0.551893 0.496842
599 1 0.507615 0.553415 0.497515
600 1 0.518697 0.549369 0.483066
601 1 0.521083 0.549352 0.494869
602 1 0.53115 0.542605 0.481654
603 1 0.523206 0.548214 0.488229
604 1 0.529468 0.544175 0.487665
605 1 0.525255 0.546298 0.482624
606 1 0.535853 0.539443 0.486795
607 1 0.533104 0.542078 0.491736
608 1 0.52718 0.546415 0.493748
609 1 0.535395 0.540292 0.497078
610 1 0.530373 0.544347 0.499105
611 1 0.474213 0.452798 0.502663
612 1 0.468569 0.456516 0.504347
613 1 0.472598 0.453889 0.508932
614 1 0.471042 0.455822 0.515268
615 1 0.467095 0.457763 0.510205
616 1 0.476836 0.452165 0.514318
617 1 0.478384 0.450929 0.506853
618 1 0.48012 0.450048 0.500898
619 1 0.466315 0.459296 0.517094
620 1 0.463133 0.460738 0.505303
621 1 0.482245 0.449623 0.511953
622 1 0.49756 0.446318 0.501422
623 1 0.484718 0.448529 0.505041
624 1 0.488163 0.448055 0.511182
625 1 0.493608 0.447256 0.51492
626 1 0.490949 0.446957 0.503668
627 1 0.49544 0.446672 0.508212
628 1 0.487307 0.448875 0.517239
629 1 0.500434 0.447068 0.514587
630 1 0.503574 0.44626 0.500341
631 1 0.501808 0.446468 0.507487
632 1 0.506348 0.44712 0.511414
633 1 0.508836 0.446963 0.504271
634 1 0.510532 0.448187 0.516726
635 1 0.513565 0.448278 0.510535
636 1 0.515105 0.448288 0.504245
637 1 0.516995 0.449993 0.516603
638 1 0.504623 0.447561 0.518811
639 1 0.519951 0.450192 0.509385
640 1 0.527852 0.453874 0.501652
641 1 0.521341 0.450556 0.503536
642 1 0.526172 0.453348 0.507868
643 1 0.52403 0.452615 0.514075
644 1 0.530286 0.456152 0.512273
645 1 0.531873 0.456737 0.506482
646 1 0.533457 0.459183 0.517817
647 1 0.535534 0.460083 0.510863
648 1 0.53724 0.46127 0.504213
649 1 0.527811 0.455341 0.518872
650 1 0.459407 0.464622 0.502104
651 1 0.455307 0.470053 0.500967
652 1 0.452872 0.474355 0.507011
653 1 0.454133 0.472646 0.512383
654 1 0.457629 0.467409 0.512836
655 1 0.452053 0.475589 0.500155
656 1 0.456563 0.468424 0.506038
657 1 0.453179 0.475451 0.518191
658 1 0.45122 0.478561 0.512397
659 1 0.461158 0.46398 0.517626
660 1 0.450328 0.479967 0.505498
661 1 0.457057 0.469571 0.519036
662 1 0.46174 0.462681 0.510938
663 1 0.538909 0.464034 0.515343
664 1 0.541137 0.46525 0.502076
665 1 0.54352 0.469208 0.513453
666 1 0.540605 0.464954 0.509377
667 1 0.544546 0.47019 0.506089
668 1 0.547006 0.474398 0.51018
669 1 0.548269 0.476187 0.503153
670 1 0.545719 0.473711 0.517534
671 1 0.548912 0.479042 0.515245
672 1 0.549635 0.480033 0.507671
673 1 0.449233 0.482352 0.500086
674 1 0.446572 0.493548 0.50283
675 1 0.447906 0.486573 0.504485
676 1 0.448885 0.484104 0.511224
677 1 0.448105 0.488954 0.515844
678 1 0.447081 0.490974 0.509347
679 1 0.447257 0.49546 0.515064
680 1 0.450243 0.482829 0.517815
681 1 0.446528 0.497791 0.508141
682 1 0.550908 0.482264 0.501172
683 1 0.552143 0.486545 0.50579
684 1 0.550914 0.484456 0.511942
685 1 0.552782 0.49104 0.510854
686 1 0.551772 0.489831 0.517552
687 1 0.552884 0.496515 0.514809
688 1 0.553223 0.492846 0.502028
689 1 0.553405 0.496175 0.50702
690 1 0.550199 0.484576 0.518936
691 1 0.446703 0.507627 0.500152
692 1 0.446279 0.500863 0.501295
693 1 0.446772 0.502616 0.512376
694 1 0.447655 0.512285 0.504157
695 2 0.437713 0.511815 0.504788
696 1 0.446679 0.504783 0.506249
697 1 0.447683 0.510256 0.510516
698 1 0.448979 0.51469 0.515826
699 1 0.447558 0.507822 0.516708
700 1 0.449096 0.516607 0.50954
701 1 0.449857 0.519114 0.502878
702 1 0.447497 0.500695 0.519122
703 2 0.437778 0.4978 0.519858
704 1 0.553185 0.50855 0.501384
705 1 0.553819 0.501865 0.502871
706 1 0.551712 0.513709 0.504722
707 1 0.552705 0.503004 0.518008
708 1 0.553134 0.506964 0.507824
709 1 0.552601 0.507952 0.514196
710 1 0.553283 0.501667 0.511022
711 1 0.551475 0.513519 0.510789
712 1 0.550809 0.514341 0.517628
713 1 0.452954 0.525935 0.502247
714 1 0.45135 0.521353 0.513927
715 1 0.451978 0.523554 0.507854
716 1 0.459822 0.535639 0.504126
717 1 0.45451 0.527635 0.512566
718 1 0.455958 0.530504 0.506399
719 1 0.458823 0.53414 0.511201
720 1 0.457673 0.531598 0.516893
721 1 0.453843 0.525593 0.518434
722 1 0.462114 0.53695 0.516275
723 1 0.543484 0.531274 0.500247
724 1 0.539234 0.536691 0.500179
725 1 0.549394 0.520091 0.51267
726 1 0.547611 0.524903 0.50171
727 1 0.549881 0.519852 0.505651
728 1 0.544531 0.530066 0.50618
729 1 0.54035 0.53543 0.506696
730 1 0.547323 0.524767 0.508523
731 2 0.55443 0.531737 0.510191
732 1 0.539778 0.535437 0.513758
733 1 0.543588 0.530629 0.511877
734 1 0.546218 0.525854 0.515272
735 1 0.542775 0.530792 0.518135
736 1 0.548512 0.520647 0.519058
737 1 0.462769 0.538527 0.50859
738 1 0.464372 0.540349 0.502164
739 1 0.466061 0.540923 0.512928
740 1 0.467592 0.542707 0.506637
741 1 0.471476 0.545323 0.510315
742 1 0.477862 0.548718 0.508216
743 1 0.473289 0.546689 0.503972
744 1 0.476149 0.54761 0.514532
745 1 0.470364 0.543887 0.516851
746 1 0.494337 0.553672 0.500181
747 1 0.481533 0.550635 0.502867
748 1 0.482141 0.550283 0.512551
749 1 0.485508 0.551537 0.507767
750 1 0.487432 0.552333 0.501395
751 1 0.48933 0.552117 0.512784
752 1 0.491986 0.552989 0.506509
753 1 0.496337 0.553208 0.511607
754 1 0.498941 0.55372 0.505487
755 1 0.493693 0.552314 0.517564
756 1 0.486779 0.550952 0.518753
757 1 0.500608 0.552655 0.517147
758 1 0.503579 0.553469 0.51026
759 1 0.505914 0.553203 0.504115
760 1 0.510163 0.552513 0.509252
761 1 0.512778 0.552235 0.502846
762 1 0.516547 0.551125 0.507678
763 1 0.513792 0.551112 0.515104
764 1 0.506635 0.552457 0.515671
765 1 0.518872 0.550602 0.501014
766 1 0.536308 0.539371 0.509029
767 1 0.525038 0.547681 0.50072
768 1 0.520307 0.549069 0.513245
769 1 0.535199 0.539637 0.516209
770 1 0.534657 0.540812 0.503466
771 1 0.522026 0.548901 0.506442
772 1 0.52887 0.545284 0.505337
773 1 0.531783 0.542971 0.511165
774 1 0.526494 0.546402 0.5114
775 1 0.529746 0.543361 0.517568
776 1 0.524517 0.546716 0.517709
777 1 0.480568 0.451111 0.519438
778 1 0.475378 0.454007 0.521378
779 1 0.469299 0.457897 0.522345
780 1 0.473705 0.456061 0.527103
781 1 0.471771 0.458715 0.533373
782 1 0.477611 0.455196 0.532772
783 1 0.479636 0.452882 0.526428
784 1 0.468258 0.460212 0.528516
785 1 0.498681 0.447688 0.521572
786 1 0.483652 0.452198 0.531744
787 1 0.49169 0.448272 0.521637
788 1 0.486014 0.450183 0.523557
789 1 0.48923 0.450218 0.529281
790 1 0.488055 0.452189 0.536446
791 1 0.494028 0.450493 0.533943
792 1 0.495453 0.448893 0.527248
793 1 0.498051 0.451367 0.538183
794 1 0.500949 0.449685 0.531873
795 1 0.515266 0.450042 0.522458
796 1 0.503396 0.448618 0.525568
797 1 0.509726 0.448844 0.523353
798 1 0.512322 0.451916 0.534734
799 1 0.5087 0.449967 0.530455
800 1 0.505859 0.451253 0.536588
801 1 0.515001 0.451166 0.528542
802 1 0.518834 0.453753 0.533236
803 1 0.522431 0.452419 0.520214
804 1 0.520962 0.453069 0.527056
805 1 0.526702 0.455541 0.524827
806 1 0.524876 0.456105 0.532152
807 1 0.52722 0.459367 0.53763
808 1 0.531993 0.45925 0.524391
809 1 0.530184 0.459285 0.531025
810 1 0.457066 0.475364 0.535352
811 1 0.455433 0.473246 0.523755
812 1 0.45856 0.470961 0.52982
813 1 0.459936 0.467314 0.524859
814 1 0.454512 0.477474 0.52944
815 2 0.446493 0.472662 0.533841
816 2 0.439556 0.477125 0.539422
817 1 0.452266 0.480231 0.524154
818 1 0.461273 0.469452 0.535801
819 1 0.463059 0.46526 0.530085
820 1 0.464102 0.462413 0.523391
821 1 0.465902 0.463975 0.534806
822 1 0.533345 0.463433 0.535064
823 1 0.535859 0.463697 0.528735
824 1 0.537393 0.463625 0.522369
825 1 0.538012 0.467529 0.533771
826 1 0.54149 0.468165 0.520601
827 1 0.540301 0.468384 0.527335
828 1 0.542433 0.472566 0.53153
829 1 0.543932 0.472932 0.524339
830 1 0.544399 0.478448 0.536143
831 1 0.545928 0.47794 0.528667
832 1 0.547815 0.479384 0.522896
833 1 0.540761 0.473047 0.537657
834 1 0.454108 0.48087 0.534716
835 1 0.448269 0.492985 0.521836
836 1 0.44971 0.487071 0.523324
837 1 0.451703 0.484244 0.52906
838 1 0.449551 0.49129 0.52879
839 1 0.449614 0.497612 0.53058
840 1 0.451705 0.48897 0.53482
841 1 0.451301 0.494351 0.536579
842 1 0.448317 0.498488 0.524895
843 1 0.552033 0.495664 0.520954
844 1 0.550686 0.489843 0.524305
845 1 0.548797 0.484275 0.52653
846 1 0.547306 0.483094 0.532958
847 1 0.549489 0.489772 0.530633
848 1 0.549806 0.495864 0.533332
849 1 0.551119 0.49625 0.527158
850 1 0.547889 0.489255 0.53671
851 1 0.44942 0.504343 0.530252
852 1 0.44944 0.512338 0.523301
853 1 0.448261 0.505614 0.523464
854 1 0.450054 0.510826 0.528897
855 1 0.452209 0.514857 0.533582
856 1 0.451215 0.508387 0.535229
857 1 0.451743 0.517405 0.52655
858 1 0.45091 0.501709 0.535824
859 1 0.45112 0.518776 0.520671
860 1 0.454949 0.518528 0.53819
861 1 0.551335 0.509465 0.52122
862 1 0.551703 0.502641 0.524174
863 1 0.550352 0.509067 0.527305
864 1 0.550435 0.502792 0.530161
865 1 0.549155 0.508849 0.53398
866 1 0.548447 0.514977 0.530252
867 1 0.54954 0.515196 0.524193
868 1 0.547143 0.514826 0.536331
869 1 0.548828 0.502961 0.537331
870 1 0.453916 0.520417 0.531871
871 1 0.454058 0.523425 0.524531
872 1 0.45721 0.529557 0.523253
873 1 0.457049 0.527068 0.529995
874 1 0.457128 0.524491 0.535803
875 1 0.461393 0.535023 0.523004
876 1 0.460688 0.532468 0.528317
877 1 0.460744 0.530296 0.534969
878 1 0.465606 0.535875 0.534579
879 1 0.464631 0.537167 0.527372
880 1 0.536425 0.535751 0.527443
881 1 0.53527 0.535018 0.533953
882 1 0.538805 0.535104 0.520213
883 1 0.545524 0.520923 0.533392
884 1 0.546897 0.520786 0.526391
885 1 0.539921 0.530581 0.532087
886 1 0.545394 0.52579 0.522024
887 1 0.541251 0.531385 0.525203
888 1 0.543751 0.525803 0.52891
889 1 0.541696 0.526023 0.536435
890 1 0.46611 0.539955 0.520626
891 1 0.469633 0.540245 0.530925
892 1 0.474501 0.545559 0.520927
893 1 0.470623 0.542401 0.52538
894 1 0.475537 0.544418 0.530798
895 1 0.473894 0.541696 0.536431
896 1 0.478323 0.546858 0.525423
897 1 0.479936 0.544709 0.537077
898 1 0.480597 0.548905 0.519841
899 1 0.484322 0.549359 0.525304
900 1 0.491018 0.551167 0.524129
901 1 0.488594 0.549301 0.530626
902 1 0.495687 0.550591 0.53004
903 1 0.48213 0.547118 0.531512
904 1 0.492987 0.548796 0.536277
905 1 0.497796 0.551908 0.522803
906 1 0.487089 0.547232 0.537073
907 1 0.499799 0.549487 0.53559
908 1 0.511606 0.550998 0.521043
909 1 0.502326 0.550828 0.528244
910 1 0.505293 0.551648 0.522728
911 1 0.509561 0.550321 0.527223
912 1 0.513534 0.548333 0.5326
913 1 0.506245 0.549651 0.533455
914 1 0.515446 0.549021 0.526101
915 1 0.518978 0.548969 0.519647
916 1 0.516742 0.545986 0.537486
917 1 0.509751 0.547626 0.53843
918 1 0.529959 0.53942 0.535721