ITEM: TIMESTEP
500000
ITEM: NUMBER OF ATOMS
2424
ITEM: BOX BOUNDS pp pp pp
-50 50
-50 50
-50 50
ITEM: ATOMS id type xs ys zs
1731 2 0.495217 0.476658 0.419634
1745 2 0.488778 0.4779 0.420266
1730 2 0.502654 0.475823 0.419761
1714 2 0.509259 0.479182 0.418907
1753 2 0.474952 0.495437 0.420808
1738 2 0.47971 0.482925 0.421939
1723 2 0.479433 0.490359 0.418757
1740 2 0.480913 0.497963 0.415923
1751 2 0.484634 0.484365 0.418111
1722 2 0.491379 0.483282 0.416025
2228 2 0.485709 0.490935 0.414799
1732 2 0.493457 0.489064 0.412906
1697 2 0.494107 0.495968 0.410926
1739 2 0.487719 0.497635 0.412614
1716 2 0.498489 0.48111 0.416252
1708 2 0.515537 0.4813 0.419819
1712 2 0.501611 0.487129 0.412946
2227 2 0.501701 0.494302 0.410871
1713 2 0.50923 0.49217 0.412393
1715 2 0.507433 0.48393 0.415455
1707 2 0.513746 0.487482 0.415612
1702 2 0.514951 0.495105 0.413929
1724 2 0.507172 0.499228 0.411084
1711 2 0.521237 0.48513 0.421342
1701 2 0.519625 0.491563 0.417763
1695 2 0.525051 0.495464 0.420835
1694 2 0.519829 0.49969 0.4166
1742 2 0.476126 0.503025 0.419562
1733 2 0.47992 0.509526 0.418208
1749 2 0.47418 0.509188 0.423033
1726 2 0.482393 0.516 0.419412
1725 2 0.48427 0.504122 0.414483
2229 2 0.493267 0.513437 0.413833
1734 2 0.486875 0.510631 0.415004
1698 2 0.491597 0.504379 0.411542
2231 2 0.498798 0.509009 0.411676
2236 2 0.497598 0.518236 0.415467
1689 2 0.499357 0.501672 0.410235
1704 2 0.489297 0.518437 0.417487
1687 2 0.513042 0.502603 0.413088
1691 2 0.503535 0.513528 0.413566
1709 2 0.511996 0.510344 0.414291
2230 2 0.505945 0.506891 0.411469
1681 2 0.517119 0.51395 0.418303
1682 2 0.510086 0.5179 0.416979
1679 2 0.518995 0.506757 0.416459
1688 2 0.525322 0.503692 0.421115
2239 2 0.523279 0.510073 0.420833
2238 2 0.521391 0.517399 0.422757
2232 2 0.49473 0.524096 0.420229
1683 2 0.486249 0.522729 0.422047
2237 2 0.503679 0.520196 0.417213
1984 2 0.514527 0.521756 0.421427
1989 2 0.507198 0.524489 0.421204
2124 2 0.501109 0.526962 0.422303
1213 2 0.49598 0.461284 0.437751
1460 2 0.491919 0.45978 0.442104
1445 2 0.504468 0.461535 0.438017
1744 2 0.476776 0.470929 0.435468
2311 2 0.473916 0.476193 0.431929
1469 2 0.47092 0.474076 0.438311
1737 2 0.476709 0.479279 0.426805
2310 2 0.466025 0.478651 0.440391
2309 2 0.480623 0.472504 0.430019
1459 2 0.480313 0.465266 0.440113
1454 2 0.46903 0.480195 0.434715
1453 2 0.474148 0.468709 0.44134
2313 2 0.491274 0.472992 0.42387
2312 2 0.483611 0.467588 0.433674
1451 2 0.48305 0.476292 0.424437
1452 2 0.486421 0.463129 0.438674
1729 2 0.48672 0.470456 0.428249
2314 2 0.491086 0.46476 0.433939
2225 2 0.493793 0.467393 0.429468
2226 2 0.499218 0.470483 0.425121
2384 2 0.499909 0.464335 0.432922
1721 2 0.506692 0.472471 0.423554
1449 2 0.511226 0.46262 0.438519
2385 2 0.503321 0.467363 0.428649
1447 2 0.508103 0.465495 0.432472
1720 2 0.515512 0.46673 0.434097
1718 2 0.513025 0.475247 0.42319
1719 2 0.511418 0.469316 0.428821
1717 2 0.517633 0.472502 0.428524
2315 2 0.51797 0.464333 0.439724
2317 2 0.519835 0.478206 0.424835
2316 2 0.521534 0.469984 0.435077
1448 2 0.523569 0.47548 0.430725
1446 2 0.52707 0.473601 0.436222
2321 2 0.532866 0.478638 0.438724
1441 2 0.525112 0.467909 0.440958
2318 2 0.529355 0.479821 0.432763
1761 2 0.459769 0.495808 0.441021
1747 2 0.474254 0.488186 0.423668
1750 2 0.471886 0.483983 0.428195
1463 2 0.462472 0.490838 0.437589
1763 2 0.462543 0.49946 0.435459
1755 2 0.467612 0.487603 0.431108
1746 2 0.470279 0.493543 0.425978
1759 2 0.46543 0.493499 0.431646
2308 2 0.464025 0.484438 0.438213
1756 2 0.466968 0.498984 0.4291
1710 2 0.526249 0.488801 0.42372
1706 2 0.525768 0.482249 0.426514
1699 2 0.535094 0.485045 0.436765
1700 2 0.530614 0.493127 0.427017
1705 2 0.531112 0.485799 0.43059
1692 2 0.53486 0.491292 0.433097
1693 2 0.538446 0.496238 0.437433
1677 2 0.534522 0.49753 0.431076
1696 2 0.529415 0.499629 0.424826
1684 2 0.538483 0.489369 0.439588
1758 2 0.460047 0.503626 0.440154
1748 2 0.476515 0.5159 0.423858
1752 2 0.471014 0.501549 0.424411
2218 2 0.461619 0.509882 0.43927
1757 2 0.463533 0.505533 0.434164
2219 2 0.468273 0.507122 0.428307
1743 2 0.471361 0.514503 0.428347
1754 2 0.465934 0.511569 0.433338
2220 2 0.464188 0.516497 0.439278
2008 2 0.4683 0.518281 0.434246
1703 2 0.528553 0.509192 0.425704
2243 2 0.537017 0.503094 0.435027
2242 2 0.532324 0.503942 0.428647
1680 2 0.530574 0.515765 0.431246
2241 2 0.533935 0.509854 0.432211
1678 2 0.535169 0.515073 0.437193
1980 2 0.52649 0.516439 0.426564
1954 2 0.538606 0.508721 0.438883
1685 2 0.540962 0.502408 0.441775
1735 2 0.471748 0.525039 0.43573
2021 2 0.467307 0.523219 0.440004
2233 2 0.474195 0.520905 0.429925
1736 2 0.471162 0.529388 0.441818
2222 2 0.476287 0.529846 0.436583
1727 2 0.478401 0.526659 0.430733
1741 2 0.479745 0.52213 0.425325
2223 2 0.480464 0.534609 0.439499
1690 2 0.485075 0.527682 0.427147
2234 2 0.491152 0.528057 0.424968
1728 2 0.483159 0.53169 0.43337
2224 2 0.487733 0.53617 0.436642
1220 2 0.489996 0.5328 0.430819
1990 2 0.495261 0.536228 0.434279
2144 2 0.496338 0.531499 0.427363
2235 2 0.502685 0.532514 0.428717
1987 2 0.509377 0.534068 0.432566
2145 2 0.508244 0.529528 0.426509
1985 2 0.514223 0.535951 0.437475
2146 2 0.502161 0.536292 0.433754
1975 2 0.514391 0.527141 0.426262
1981 2 0.515063 0.531489 0.431667
2119 2 0.518892 0.536362 0.442023
2147 2 0.507771 0.538433 0.438326
1686 2 0.527155 0.521825 0.431862
1976 2 0.531668 0.521376 0.436636
1988 2 0.520535 0.531982 0.436617
2240 2 0.520595 0.523356 0.426707
1982 2 0.522034 0.527435 0.431963
1977 2 0.52685 0.526782 0.4365
1986 2 0.525568 0.53189 0.44173
1971 2 0.531502 0.526655 0.442224
2123 2 0.49319 0.539817 0.440667
1991 2 0.486191 0.538573 0.441811
2122 2 0.500559 0.539204 0.439257
2381 2 0.480599 0.457082 0.457137
1485 2 0.474258 0.459595 0.458984
1475 2 0.475771 0.461133 0.452384
1467 2 0.482024 0.458774 0.450425
2383 2 0.49599 0.456497 0.447423
2382 2 0.489768 0.457005 0.44867
1286 2 0.486788 0.455482 0.454991
1276 2 0.493947 0.45417 0.454169
1275 2 0.495962 0.45209 0.459676
1461 2 0.484925 0.460527 0.44471
1293 2 0.489787 0.452679 0.460742
2387 2 0.507735 0.458928 0.443362
1450 2 0.500521 0.45848 0.442964
2386 2 0.500147 0.453997 0.453367
1277 2 0.503633 0.456159 0.448522
2390 2 0.502382 0.452076 0.459332
1278 2 0.507585 0.454025 0.455696
1442 2 0.514724 0.460275 0.444377
2388 2 0.5138 0.455244 0.455857
2389 2 0.510705 0.456948 0.449315
1444 2 0.51778 0.459161 0.449711
1435 2 0.516374 0.45451 0.460877
1436 2 0.520732 0.458332 0.45523
1431 2 0.527133 0.461342 0.456964
1430 2 0.522503 0.456918 0.461452
1472 2 0.456953 0.479646 0.457809
1464 2 0.459108 0.48055 0.451547
1478 2 0.45972 0.473619 0.459921
1471 2 0.46156 0.474612 0.453754
1462 2 0.463735 0.475649 0.447431
1477 2 0.464832 0.468751 0.456294
1468 2 0.468623 0.472306 0.443604
1474 2 0.478464 0.462862 0.445955
1470 2 0.466603 0.470002 0.450237
1476 2 0.472604 0.46636 0.447699
1481 2 0.470188 0.464537 0.453792
1486 2 0.46839 0.463469 0.460305
1437 2 0.524656 0.462335 0.45069
2319 2 0.530535 0.472092 0.442448
1428 2 0.535427 0.4762 0.445187
1434 2 0.533593 0.471094 0.449084
1439 2 0.527989 0.466912 0.446639
1440 2 0.52144 0.463124 0.445416
1443 2 0.536437 0.470797 0.455477
1438 2 0.530394 0.465946 0.452561
1432 2 0.53307 0.465378 0.458571
2320 2 0.53836 0.475763 0.451495
1433 2 0.540354 0.47491 0.457892
1412 2 0.542511 0.480573 0.454862
1455 2 0.460045 0.488688 0.443148
2307 2 0.456736 0.493703 0.447274
1465 2 0.455371 0.485174 0.456093
2306 2 0.454755 0.491158 0.453659
1456 2 0.457448 0.48693 0.449259
2294 2 0.452129 0.49647 0.459345
1457 2 0.452629 0.489857 0.460843
1466 2 0.454278 0.497414 0.452805
1760 2 0.461053 0.482504 0.445194
2322 2 0.537519 0.482426 0.442692
2323 2 0.541203 0.494526 0.443435
1420 2 0.540106 0.482127 0.448353
1413 2 0.54365 0.487012 0.452181
1421 2 0.541075 0.488167 0.445874
1675 2 0.546381 0.492116 0.456777
1676 2 0.544351 0.494057 0.4497
2326 2 0.545386 0.485288 0.458571
2324 2 0.54825 0.497191 0.460358
2244 2 0.546305 0.499101 0.45448
1762 2 0.457071 0.501016 0.445749
2029 2 0.458095 0.5079 0.445372
2305 2 0.452839 0.503129 0.457404
2216 2 0.455032 0.5039 0.451404
2217 2 0.453763 0.5095 0.45664
2025 2 0.456645 0.511416 0.45015
2215 2 0.45606 0.515815 0.455602
2026 2 0.460321 0.514686 0.444813
2022 2 0.459051 0.51865 0.450646
1962 2 0.543903 0.500806 0.447746
1970 2 0.539255 0.513993 0.44318
1969 2 0.54226 0.50807 0.445924
1945 2 0.544633 0.505495 0.451047
1946 2 0.54748 0.505442 0.45848
1955 2 0.542453 0.513695 0.449741
1956 2 0.545325 0.511223 0.454725
1963 2 0.542696 0.518719 0.455152
1947 2 0.54558 0.515757 0.460388
2031 2 0.45702 0.520885 0.459062
2014 2 0.460759 0.525974 0.456421
2032 2 0.463007 0.521018 0.444893
1999 2 0.475214 0.533826 0.443845
2221 2 0.470365 0.532454 0.44823
2007 2 0.470428 0.535968 0.455024
2020 2 0.466614 0.527705 0.446283
2033 2 0.462358 0.524649 0.450572
2009 2 0.46581 0.530538 0.453151
2016 2 0.47448 0.537123 0.450911
2030 2 0.467674 0.535701 0.460483
2017 2 0.462935 0.531301 0.460568
2000 2 0.480837 0.538264 0.445448
1978 2 0.535695 0.520731 0.442682
2115 2 0.535327 0.525758 0.447865
2148 2 0.533954 0.530473 0.452508
2106 2 0.530088 0.531277 0.446987
1967 2 0.528806 0.53593 0.453183
1972 2 0.524706 0.535724 0.446781
1961 2 0.532979 0.534372 0.457998
1964 2 0.537386 0.529655 0.458611
2149 2 0.538896 0.524796 0.453913
1983 2 0.539439 0.519557 0.448376
1957 2 0.542494 0.522872 0.460083
2015 2 0.473013 0.539786 0.459247
2011 2 0.478484 0.54199 0.457336
2002 2 0.479981 0.540766 0.451717
2003 2 0.484808 0.54431 0.45565
2143 2 0.486208 0.541928 0.448793
2001 2 0.491715 0.545036 0.45279
1992 2 0.492379 0.54244 0.4462
2140 2 0.49603 0.547234 0.457736
1994 2 0.489784 0.546856 0.459588
1993 2 0.498409 0.545327 0.451622
2141 2 0.499482 0.542509 0.445269
2120 2 0.513269 0.539634 0.443578
2118 2 0.50312 0.546921 0.45655
2121 2 0.50499 0.544816 0.450783
2142 2 0.505939 0.541714 0.444232
2116 2 0.512515 0.542237 0.448876
2105 2 0.516478 0.543024 0.453712
2117 2 0.510072 0.545872 0.455719
2111 2 0.519076 0.539742 0.448476
2104 2 0.514499 0.546174 0.460191
2112 2 0.507522 0.547914 0.461213
1973 2 0.527314 0.539201 0.459261
1979 2 0.521437 0.54293 0.459136
2151 2 0.522993 0.539872 0.453569
2380 2 0.477676 0.456262 0.46372
1311 2 0.468654 0.459525 0.471987
1480 2 0.474293 0.456314 0.46969
1308 2 0.473894 0.455052 0.475959
2378 2 0.470956 0.459787 0.464874
1313 2 0.468909 0.457987 0.47893
1303 2 0.479593 0.452668 0.475176
2379 2 0.480786 0.453419 0.469074
1299 2 0.484077 0.453779 0.462972
1304 2 0.487605 0.451336 0.467628
1292 2 0.49507 0.450456 0.46644
1291 2 0.485792 0.450454 0.474154
1297 2 0.492438 0.449533 0.472221
1306 2 0.491383 0.448402 0.478888
1302 2 0.497618 0.447934 0.477808
1284 2 0.499666 0.449105 0.47132
1274 2 0.509289 0.452095 0.462144
1285 2 0.501772 0.450478 0.464958
1283 2 0.507239 0.449915 0.46952
1273 2 0.513835 0.451945 0.467228
1282 2 0.512202 0.449905 0.473653
1290 2 0.505044 0.448564 0.475455
1272 2 0.516935 0.450341 0.478976
2391 2 0.51914 0.452397 0.473096
1281 2 0.510573 0.448483 0.480239
1429 2 0.519954 0.453876 0.467514
1424 2 0.528848 0.460549 0.462798
1414 2 0.522909 0.453099 0.478414
1422 2 0.525744 0.455479 0.473886
1423 2 0.525559 0.456898 0.467685
1416 2 0.530577 0.459793 0.469927
1407 2 0.531114 0.458568 0.476566
1483 2 0.459498 0.470893 0.466277
1488 2 0.45458 0.477644 0.470314
1490 2 0.456947 0.471691 0.47315
2302 2 0.453805 0.475966 0.477031
1479 2 0.456103 0.477234 0.464595
1492 2 0.459604 0.467469 0.476963
1487 2 0.461381 0.466869 0.470713
2377 2 0.464131 0.462646 0.474666
1482 2 0.463206 0.467947 0.462428
1489 2 0.465474 0.463842 0.46686
2376 2 0.463395 0.461959 0.480622
1425 2 0.537934 0.469279 0.461781
1417 2 0.534565 0.464316 0.46523
1418 2 0.535371 0.462911 0.472161
1664 2 0.536563 0.462745 0.478599
1426 2 0.539023 0.468461 0.468169
1427 2 0.544079 0.479138 0.461741
1419 2 0.54221 0.47358 0.46543
1408 2 0.540225 0.467623 0.474261
1409 2 0.543484 0.472727 0.47215
2330 2 0.544491 0.472198 0.478519
1410 2 0.54584 0.478751 0.468653
2329 2 0.546932 0.478162 0.475482
2301 2 0.454045 0.483517 0.462406
2304 2 0.450385 0.496016 0.465899
1484 2 0.451176 0.482292 0.475103
1473 2 0.450797 0.489727 0.467661
2300 2 0.452357 0.483437 0.468577
2303 2 0.449628 0.488967 0.473526
1502 2 0.448215 0.494478 0.478028
1503 2 0.449041 0.496118 0.472375
1500 2 0.449425 0.487349 0.47946
2325 2 0.548303 0.490382 0.463127
2327 2 0.548699 0.483911 0.472771
1411 2 0.547304 0.484385 0.465941
1638 2 0.549714 0.489903 0.469599
2245 2 0.550928 0.49017 0.476764
1944 2 0.551439 0.496367 0.474155
1636 2 0.549812 0.483915 0.479522
1223 2 0.549965 0.495875 0.467217
1646 2 0.55223 0.495333 0.480612
1764 2 0.453365 0.515118 0.462165
1765 2 0.449482 0.503 0.470176
1511 2 0.448033 0.501791 0.476473
1458 2 0.451817 0.508519 0.462572
2214 2 0.450702 0.501804 0.464074
2213 2 0.452192 0.515001 0.468303
1224 2 0.450195 0.508912 0.46929
1766 2 0.450382 0.514483 0.475003
2293 2 0.448862 0.50781 0.475777
2157 2 0.548115 0.509867 0.462495
1942 2 0.552036 0.501466 0.478036
2156 2 0.550999 0.502015 0.470988
2155 2 0.549377 0.503292 0.464779
1943 2 0.551276 0.507735 0.475924
1941 2 0.549855 0.508883 0.469107
1938 2 0.549512 0.514114 0.47423
2158 2 0.547926 0.51519 0.467683
1940 2 0.55081 0.512505 0.480672
1934 2 0.549126 0.518565 0.47954
1767 2 0.451233 0.519557 0.479449
2212 2 0.452934 0.520146 0.472443
2027 2 0.458779 0.526942 0.462933
2034 2 0.455221 0.521221 0.465809
2210 2 0.454391 0.525135 0.476035
2211 2 0.45658 0.52597 0.469852
2209 2 0.458888 0.531063 0.474145
2028 2 0.460846 0.53167 0.467739
2208 2 0.460553 0.534345 0.47925
2024 2 0.462677 0.535552 0.473311
2023 2 0.465533 0.536152 0.466437
1966 2 0.536154 0.533497 0.463723
2163 2 0.538256 0.534773 0.474655
1952 2 0.534593 0.536981 0.469792
1959 2 0.531335 0.537931 0.463329
2164 2 0.536047 0.538108 0.480621
2159 2 0.5469 0.520393 0.47159
1958 2 0.539613 0.531323 0.469517
1948 2 0.544922 0.520852 0.465031
1960 2 0.540875 0.527604 0.463979
1951 2 0.542856 0.529307 0.475841
1949 2 0.543401 0.526165 0.469911
1950 2 0.546065 0.524121 0.477177
2018 2 0.476988 0.543584 0.46389
2010 2 0.47146 0.540736 0.465446
2019 2 0.468353 0.540084 0.471278
2012 2 0.474336 0.543844 0.470514
2013 2 0.471837 0.543672 0.476911
2005 2 0.477861 0.546787 0.475302
2006 2 0.46548 0.539431 0.478075
1995 2 0.480498 0.546752 0.469093
2004 2 0.483228 0.54572 0.461732
1996 2 0.485375 0.549422 0.473142
2139 2 0.48747 0.54806 0.466161
2114 2 0.494022 0.549027 0.464568
2109 2 0.491868 0.55012 0.47076
2102 2 0.496403 0.551664 0.475645
2108 2 0.498971 0.55059 0.469392
2138 2 0.48942 0.551003 0.477287
1997 2 0.482461 0.549246 0.479004
2113 2 0.500754 0.549088 0.463189
2101 2 0.503774 0.551203 0.474174
2107 2 0.505784 0.549887 0.467566
2097 2 0.512521 0.548335 0.466336
2100 2 0.510569 0.550217 0.473255
2150 2 0.517223 0.548077 0.47191
2099 2 0.513879 0.550563 0.478529
2092 2 0.507512 0.551946 0.480106
2094 2 0.50106 0.552543 0.479958
1965 2 0.518737 0.54573 0.465337
2098 2 0.520732 0.547501 0.477402
2154 2 0.532611 0.540105 0.475207
1974 2 0.525005 0.542805 0.464913
2153 2 0.523211 0.54529 0.470463
1953 2 0.529509 0.541469 0.470083
2110 2 0.527075 0.544508 0.476382
1307 2 0.479089 0.451624 0.481375
1312 2 0.473681 0.45407 0.482387
1314 2 0.470772 0.455172 0.490954
1494 2 0.468536 0.457289 0.485206
2375 2 0.464891 0.459154 0.493039
2412 2 0.475024 0.452487 0.495922
1309 2 0.476066 0.452168 0.488982
2414 2 0.469361 0.455713 0.497523
1218 2 0.464766 0.459047 0.499439
1496 2 0.463634 0.461126 0.487369
1298 2 0.484975 0.449567 0.481164
1301 2 0.481074 0.449762 0.493707
1310 2 0.482538 0.449761 0.486923
1300 2 0.489937 0.447889 0.485631
1305 2 0.48711 0.447866 0.492199
1288 2 0.493426 0.446816 0.490514
1295 2 0.495874 0.447325 0.48387
2406 2 0.492999 0.446511 0.497018
2404 2 0.498818 0.446363 0.494626
1255 2 0.486348 0.448066 0.498598
1289 2 0.501001 0.446559 0.488755
1296 2 0.503987 0.447389 0.481802
1280 2 0.508306 0.447667 0.486615
1287 2 0.505422 0.446775 0.49328
1279 2 0.512626 0.447814 0.492337
1271 2 0.515138 0.449268 0.485205
1270 2 0.517889 0.449299 0.496835
2393 2 0.518509 0.449691 0.490361
2400 2 0.51087 0.447494 0.497936
1415 2 0.533123 0.458558 0.483573
1406 2 0.527421 0.454854 0.482076
2392 2 0.521836 0.451656 0.484532
1405 2 0.524966 0.452488 0.49131
2333 2 0.529433 0.455191 0.494904
2394 2 0.523544 0.451231 0.497637
2332 2 0.529227 0.455467 0.48803
1671 2 0.533699 0.45849 0.491275
1673 2 0.533224 0.457532 0.499601
2296 2 0.455653 0.47173 0.481371
2297 2 0.459108 0.466145 0.483475
2298 2 0.452787 0.475815 0.485182
1491 2 0.453101 0.473988 0.491874
1493 2 0.455707 0.470198 0.487633
1504 2 0.459366 0.465297 0.49007
1506 2 0.455739 0.469263 0.495117
1507 2 0.450353 0.480355 0.488498
1497 2 0.450638 0.478729 0.495313
1505 2 0.460388 0.46372 0.496131
1667 2 0.537286 0.461633 0.496823
2331 2 0.537588 0.462501 0.485049
1668 2 0.538648 0.462953 0.491345
1659 2 0.540896 0.466912 0.480903
2328 2 0.547798 0.477416 0.481993
1653 2 0.545099 0.472157 0.485435
1658 2 0.541823 0.466974 0.488017
1662 2 0.542305 0.467084 0.496139
1663 2 0.545317 0.471227 0.492753
1651 2 0.548012 0.47574 0.496097
1652 2 0.548306 0.476902 0.488869
1650 2 0.545578 0.471263 0.49998
2299 2 0.450775 0.480994 0.482096
1501 2 0.447611 0.492112 0.48461
1513 2 0.448675 0.484246 0.493333
1498 2 0.448487 0.486528 0.48601
1499 2 0.447081 0.491584 0.491937
1516 2 0.446215 0.496242 0.496142
1523 2 0.447404 0.488884 0.497758
1509 2 0.446581 0.49778 0.489251
1510 2 0.447218 0.499438 0.482838
1644 2 0.550368 0.481364 0.494277
2247 2 0.551929 0.488853 0.483344
1645 2 0.550202 0.482866 0.486446
1657 2 0.552097 0.48691 0.490893
1635 2 0.552744 0.49289 0.488062
2249 2 0.553449 0.493015 0.494333
1931 2 0.553429 0.498928 0.491801
1935 2 0.553914 0.49809 0.498469
1634 2 0.552392 0.487598 0.497899
1637 2 0.552938 0.499738 0.485441
1774 2 0.449017 0.512597 0.481286
2292 2 0.447414 0.506134 0.482759
1524 2 0.446443 0.502937 0.494062
1518 2 0.446755 0.504256 0.488118
1782 2 0.447853 0.511426 0.487642
1783 2 0.449191 0.51664 0.491781
1789 2 0.447426 0.510196 0.493791
1796 2 0.448329 0.514912 0.497654
1775 2 0.450177 0.518419 0.485651
1633 2 0.553533 0.504529 0.496677
1936 2 0.552518 0.505699 0.482976
2246 2 0.55312 0.505624 0.489146
1939 2 0.552971 0.50981 0.493639
2248 2 0.552022 0.511538 0.487152
1933 2 0.550869 0.517346 0.492927
1937 2 0.550212 0.517297 0.485548
1929 2 0.551698 0.514891 0.498459
1769 2 0.456301 0.529352 0.480934
1768 2 0.452775 0.523989 0.483633
1784 2 0.450931 0.522159 0.496775
1776 2 0.451646 0.523331 0.490253
1777 2 0.455144 0.528797 0.487727
1778 2 0.459206 0.533918 0.485564
1779 2 0.457614 0.532819 0.49289
1785 2 0.454061 0.527779 0.49489
1786 2 0.456477 0.531813 0.49971
1787 2 0.461086 0.536835 0.497262
1771 2 0.461827 0.537282 0.491122
1908 2 0.540332 0.53397 0.481153
1906 2 0.538748 0.536834 0.492799
2174 2 0.540647 0.534243 0.487392
1928 2 0.549729 0.521068 0.498037
1221 2 0.544241 0.528657 0.482972
2162 2 0.547496 0.523471 0.484537
2160 2 0.548386 0.522721 0.490478
2161 2 0.545218 0.52879 0.489256
1923 2 0.542523 0.532839 0.493895
1907 2 0.546103 0.52746 0.49554
1770 2 0.463581 0.538587 0.484361
1998 2 0.476064 0.546843 0.481552
2206 2 0.469496 0.543022 0.483177
1780 2 0.465641 0.541147 0.49529
2207 2 0.467133 0.542028 0.48963
1772 2 0.471853 0.545889 0.493394
2135 2 0.473178 0.545916 0.487407
2205 2 0.477637 0.548715 0.492537
1773 2 0.476356 0.548392 0.498651
2136 2 0.479899 0.549274 0.486166
1781 2 0.469556 0.544526 0.499257
2134 2 0.483059 0.550915 0.496085
2088 2 0.484517 0.551169 0.490019
2137 2 0.48685 0.55127 0.483634
2103 2 0.493978 0.552517 0.482741
2096 2 0.49154 0.552701 0.488663
2085 2 0.496206 0.55339 0.493677
2087 2 0.49 0.552722 0.494781
2095 2 0.498913 0.55326 0.486603
2086 2 0.501254 0.55379 0.498794
2084 2 0.50339 0.553583 0.492246
2093 2 0.505146 0.55301 0.485613
2083 2 0.509936 0.552691 0.491137
2082 2 0.517133 0.550541 0.489263
2091 2 0.512219 0.551685 0.485325
2129 2 0.514588 0.551893 0.496842
2131 2 0.507615 0.553415 0.497515
2090 2 0.518697 0.549369 0.483066
2128 2 0.521083 0.549352 0.494869
2152 2 0.53115 0.542605 0.481654
2089 2 0.523206 0.548214 0.488229
2080 2 0.529468 0.544175 0.487665
1968 2 0.525255 0.546298 0.482624
2081 2 0.535853 0.539443 0.486795
2126 2 0.533104 0.542078 0.491736
2127 2 0.52718 0.546415 0.493748
2175 2 0.535395 0.540292 0.497078
2043 2 0.530373 0.544347 0.499105
2410 2 0.474213 0.452798 0.502663
2295 2 0.468569 0.456516 0.504347
1225 2 0.472598 0.453889 0.508932
2423 2 0.471042 0.455822 0.515268
2424 2 0.467095 0.457763 0.510205
1226 2 0.476836 0.452165 0.514318
1234 2 0.478384 0.450929 0.506853
2408 2 0.48012 0.450048 0.500898
1324 2 0.466315 0.459296 0.517094
1495 2 0.463133 0.460738 0.505303
1242 2 0.482245 0.449623 0.511953
2402 2 0.49756 0.446318 0.501422
1249 2 0.484718 0.448529 0.505041
1243 2 0.488163 0.448055 0.511182
1250 2 0.493608 0.447256 0.51492
1260 2 0.490949 0.446957 0.503668
1256 2 0.49544 0.446672 0.508212
1244 2 0.487307 0.448875 0.517239
1261 2 0.500434 0.447068 0.514587
1294 2 0.503574 0.44626 0.500341
1264 2 0.501808 0.446468 0.507487
1267 2 0.506348 0.44712 0.511414
2398 2 0.508836 0.446963 0.504271
2397 2 0.510532 0.448187 0.516726
1269 2 0.513565 0.448278 0.510535
2396 2 0.515105 0.448288 0.504245
1404 2 0.516995 0.449993 0.516603
1265 2 0.504623 0.447561 0.518811
2395 2 0.519951 0.450192 0.509385
2334 2 0.527852 0.453874 0.501652
1217 2 0.521341 0.450556 0.503536
1674 2 0.526172 0.453348 0.507868
2335 2 0.52403 0.452615 0.514075
1672 2 0.530286 0.456152 0.512273
1670 2 0.531873 0.456737 0.506482
2337 2 0.533457 0.459183 0.517817
1669 2 0.535534 0.460083 0.510863
1666 2 0.53724 0.46127 0.504213
2336 2 0.527811 0.455341 0.518872
1512 2 0.459407 0.464622 0.502104
2371 2 0.455307 0.470053 0.500967
1520 2 0.452872 0.474355 0.507011
1514 2 0.454133 0.472646 0.512383
2374 2 0.457629 0.467409 0.512836
2372 2 0.452053 0.475589 0.500155
2373 2 0.456563 0.468424 0.506038
1316 2 0.453179 0.475451 0.518191
1319 2 0.45122 0.478561 0.512397
1332 2 0.461158 0.46398 0.517626
1515 2 0.450328 0.479967 0.505498
2369 2 0.457057 0.469571 0.519036
1315 2 0.46174 0.462681 0.510938
1660 2 0.538909 0.464034 0.515343
1656 2 0.541137 0.46525 0.502076
1655 2 0.54352 0.469208 0.513453
1661 2 0.540605 0.464954 0.509377
1649 2 0.544546 0.47019 0.506089
1641 2 0.547006 0.474398 0.51018
1642 2 0.548269 0.476187 0.503153
1648 2 0.545719 0.473711 0.517534
1640 2 0.548912 0.479042 0.515245
1632 2 0.549635 0.480033 0.507671
1517 2 0.449233 0.482352 0.500086
1508 2 0.446572 0.493548 0.50283
1522 2 0.447906 0.486573 0.504485
1521 2 0.448885 0.484104 0.511224
1526 2 0.448105 0.488954 0.515844
1527 2 0.447081 0.490974 0.509347
1531 2 0.447257 0.49546 0.515064
1519 2 0.450243 0.482829 0.517815
1528 2 0.446528 0.497791 0.508141
1643 2 0.550908 0.482264 0.501172
2250 2 0.552143 0.486545 0.50579
2251 2 0.550914 0.484456 0.511942
1924 2 0.552782 0.49104 0.510854
1909 2 0.551772 0.489831 0.517552
1917 2 0.552884 0.496515 0.514809
1930 2 0.553223 0.492846 0.502028
1920 2 0.553405 0.496175 0.50702
2252 2 0.550199 0.484576 0.518936
2291 2 0.446703 0.507627 0.500152
1529 2 0.446279 0.500863 0.501295
1532 2 0.446772 0.502616 0.512376
2290 2 0.447655 0.512285 0.504157
2289 2 0.446679 0.504783 0.506249
1533 2 0.447683 0.510256 0.510516
1800 2 0.448979 0.51469 0.515826
1536 2 0.447558 0.507822 0.516708
1795 2 0.449096 0.516607 0.50954
1791 2 0.449857 0.519114 0.502878
2287 2 0.447497 0.500695 0.519122
1 1 0.5 0.5 0.5
2 1 0.5 0.5 0.5
3 1 0.5 0.5 0.5
4 1 0.5 0.5 0.5
5 1 0.5 0.5 0.5
6 1 0.5 0.5 0.5
7 1 0.5 0.5 0.5
8 1 0.5 0.5 0.5
9 1 0.5 0.5 0.5
10 1 0.5 0.5 0.5
11 1 0.5 0.5 0.5
12 1 0.5 0.5 0.5
13 1 0.5 0.5 0.5
14 1 0.5 0.5 0.5
15 1 0.5 0.5 0.5
16 1 0.5 0.5 0.5
17 1 0.5 0.5 0.5
18 1 0.5 0.5 0.5
19 1 0.5 0.5 0.5
20 1 0.5 0.5 0.5
21 1 0.5 0.5 0.5
22 1 0.5 0.5 0.5
23 1 0.5 0.5 0.5
24 1 0.5 0.5 0.5
25 1 0.5 0.5 0.5
26 1 0.5 0.5 0.5
27 1 0.5 0.5 0.5
28 1 0.5 0.5 0.5
29 1 0.5 0.5 0.5
30 1 0.5 0.5 0.5
31 1 0.5 0.5 0.5
32 1 0.5 0.5 0.5
33 1 0.5 0.5 0.5
34 1 0.5 0.5 0.5
35 1 0.5 0.5 0.5
36 1 0.5 0.5 0.5
37 1 0.5 0.5 0.5
38 1 0.5 0.5 0.5
39 1 0.5 0.5 0.5
40 1 0.5 0.5 0.5
41 1 0.5 0.5 0.5
42 1 0.5 0.5 0.5
43 1 0.5 0.5 0.5
44 1 0.5 0.5 0.5
45 1 0.5 0.5 0.5
46 1 0.5 0.5 0.5
47 1 0.5 0.5 0.5
48 1 0.5 0.5 0.5
49 1 0.5 0.5 0.5
50 1 0.5 0.5 0.5
51 1 0.5 0.5 0.5
52 1 0.5 0.5 0.5
53 1 0.5 0.5 0.5
54 1 0.5 0.5 0.5
55 1 0.5 0.5 0.5
56 1 0.5 0.5 0.5
57 1 0.5 0.5 0.5
58 1 0.5 0.5 0.5
59 1 0.5 0.5 0.5
60 1 0.5 0.5 0.5
61 1 0.5 0.5 0.5
62 1 0.5 0.5 0.5
63 1 0.5 0.5 0.5
64 1 0.5 0.5 0.5
65 1 0.5 0.5 0.5
66 1 0.5 0.5 0.5
67 1 0.5 0.5 0.5
68 1 0.5 0.5 0.5
69 1 0.5 0.5 0.5
70 1 0.5 0.5 0.5
71 1 0.5 0.5 0.5
72 1 0.5 0.5 0.5
73 1 0.5 0.5 0.5
74 1 0.5 0.5 0.5
75 1 0.5 0.5 0.5
76 1 0.5 0.5 0.5
77 1 0.5 0.5 0.5
78 1 0.5 0.5 0.5
79 1 0.5 0.5 0.5
80 1 0.5 0.5 0.5
81 1 0.5 0.5 0.5
82 1 0.5 0.5 0.5
83 1 0.5 0.5 0.5
84 1 0.5 0.5 0.5
85 1 0.5 0.5 0.5
86 1 0.5 0.5 0.5
87 1 0.5 0.5 0.5
88 1 0.5 0.5 0.5
89 1 0.5 0.5 0.5
90 1 0.5 0.5 0.5
91 1 0.5 0.5 0.5
92 1 0.5 0.5 0.5
93 1 0.5 0.5 0.5
94 1 0.5 0.5 0.5
95 1 0.5 0.5 0.5
96 1 0.5 0.5 0.5
97 1 0.5 0.5 0.5
98 1 0.5 0.5 0.5
99 1 0.5 0.5 0.5
100 1 0.5 0.5 0.5
101 1 0.5 0.5 0.5
102 1 0.5 0.5 0.5
103 1 0.5 0.5 0.5
104 1 0.5 0.5 0.5
105 1 0.5 0.5 0.5
106 1 0.5 0.5 0.5
107 1 0.5 0.5 0.5
108 1 0.5 0.5 0.5
109 1 0.5 0.5 0.5
110 1 0.5 0.5 0.5
111 1 0.5 0.5 0.5
112 1 0.5 0.5 0.5
113 1 0.5 0.5 0.5
114 1 0.5 0.5 0.5
115 1 0.5 0.5 0.5
116 1 0.5 0.5 0.5
117 1 0.5 0.5 0.5
118 1 0.5 0.5 0.5
119 1 0.5 0.5 0.5
120 1 0.5 0.5 0.5
121 1 0.5 0.5 0.5
122 1 0.5 0.5 0.5
123 1 0.5 0.5 0.5
124 1 0.5 0.5 0.5
125 1 0.5 0.5 0.5
126 1 0.5 0.5 0.5
127 1 0.5 0.5 0.5
128 1 0.5 0.5 0.5
129 1 0.5 0.5 0.5
130 1 0.5 0.5 0.5
131 1 0.5 0.5 0.5
132 1 0.5 0.5 0.5
133 1 0.5 0.5 0.5
134 1 0.5 0.5 0.5
135 1 0.5 0.5 0.5
136 1 0.5 0.5 0.5
137 1 0.5 0.5 0.5
138 1 0.5 0.5 0.5
139 1 0.5 0.5 0.5
140 1 0.5 0.5 0.5
141 1 0.5 0.5 0.5
142 1 0.5 0.5 0.5
143 1 0.5 0.5 0.5
144 1 0.5 0.5 0.5
145 1 0.5 0.5 0.5
146 1 0.5 0.5 0.5
147 1 0.5 0.5 0.5
148 1 0.5 0.5 0.5
149 1 0.5 0.5 0.5
150 1 0.5 0.5 0.5
151 1 0.5 0.5 0.5
152 1 0.5 0.5 0.5
153 1 0.5 0.5 0.5
154 1 0.5 0.5 0.5
155 1 0.5 0.5 0.5
156 1 0.5 0.5 0.5
157 1 0.5 0.5 0.5
158 1 0.5 0.5 0.5
159 1 0.5 0.5 0.5
160 1 0.5 0.5 0.5
161 1 0.5 0.5 0.5
162 1 0.5 0.5 0.5
163 1 0.5 0.5 0.5
164 1 0.5 0.5 0.5
165 1 0.5 0.5 0.5
166 1 0.5 0.5 0.5
167 1 0.5 0.5 0.5
168 1 0.5 0.5 0.5
169 1 0.5 0.5 0.5
170 1 0.5 0.5 0.5
171 1 0.5 0.5 0.5
172 1 0.5 0.5 0.5
173 1 0.5 0.5 0.5
174 1 0.5 0.5 0.5
175 1 0.5 0.5 0.5
176 1 0.5 0.5 0.5
177 1 0.5 0.5 0.5
178 1 0.5 0.5 0.5
179 1 0.5 0.5 0.5
180 1 0.5 0.5 0.5
181 1 0.5 0.5 0.5
182 1 0.5 0.5 0.5
183 1 0.5 0.5 0.5
184 1 0.5 0.5 0.5
185 1 0.5 0.5 0.5
186 1 0.5 0.5 0.5
187 1 0.5 0.5 0.5
188 1 0.5 0.5 0.5
189 1 0.5 0.5 0.5
190 1 0.5 0.5 0.5
191 1 0.5 0.5 0.5
192 1 0.5 0.5 0.5
193 1 0.5 0.5 0.5
194 1 0.5 0.5 0.5
195 1 0.5 0.5 0.5
196 1 0.5 0.5 0.5
197 1 0.5 0.5 0.5
198 1 0.5 0.5 0.5
199 1 0.5 0.5 0.5
200 1 0.5 0.5 0.5
201 1 0.5 0.5 0.5
202 1 0.5 0.5 0.5
203 1 0.5 0.5 0.5
204 1 0.5 0.5 0.5
205 1 0.5 0.5 0.5
206 1 0.5 0.5 0.5
207 1 0.5 0.5 0.5
208 1 0.5 0.5 0.5
209 1 0.5 0.5 0.5
210 1 0.5 0.5 0.5
211 1 0.5 0.5 0.5
212 1 0.5 0.5 0.5
213 1 0.5 0.5 0.5
214 1 0.5 0.5 0.5
215 1 0.5 0.5 0.5
216 1 0.5 0.5 0.5
217 1 0.5 0.5 0.5
218 1 0.5 0.5 0.5
219 1 0.5 0.5 0.5
220 1 0.5 0.5 0.5
221 1 0.5 0.5 0.5
222 1 0.5 0.5 0.5
223 1 0.5 0.5 0.5
224 1 0.5 0.5 0.5
225 1 0.5 0.5 0.5
226 1 0.5 0.5 0.5
227 1 0.5 0.5 0.5
228 1 0.5 0.5 0.5
229 1 0.5 0.5 0.5
230 1 0.5 0.5 0.5
231 1 0.5 0.5 0.5
232 1 0.5 0.5 0.5
233 1 0.5 0.5 0.5
234 1 0.5 0.5 0.5
235 1 0.5 0.5 0.5
236 1 0.5 0.5 0.5
237 1 0.5 0.5 0.5
238 1 0.5 0.5 0.5
239 1 0.5 0.5 0.5
240 1 0.5 0.5 0.5
241 1 0.5 0.5 0.5
242 1 0.5 0.5 0.5
243 1 0.5 0.5 0.5
244 1 0.5 0.5 0.5
245 1 0.5 0.5 0.5
246 1 0.5 0.5 0.5
247 1 0.5 0.5 0.5
248 1 0.5 0.5 0.5
249 1 0.5 0.5 0.5
250 1 0.5 0.5 0.5
251 1 0.5 0.5 0.5
252 1 0.5 0.5 0.5
253 1 0.5 0.5 0.5
254 1 0.5 0.5 0.5
255 1 0.5 0.5 0.5
256 1 0.5 0.5 0.5
257 1 0.5 0.5 0.5
258 1 0.5 0.5 0.5
259 1 0.5 0.5 0.5
260 1 0.5 0.5 0.5
261 1 0.5 0.5 0.5
262 1 0.5 0.5 0.5
263 1 0.5 0.5 0.5
264 1 0.5 0.5 0.5
265 1 0.5 0.5 0.5
266 1 0.5 0.5 0.5
267 1 0.5 0.5 0.5
268 1 0.5 0.5 0.5
269 1 0.5 0.5 0.5
270 1 0.5 0.5 0.5
271 1 0.5 0.5 0.5
272 1 0.5 0.5 0.5
273 1 0.5 0.5 0.5
274 1 0.5 0.5 0.5
275 1 0.5 0.5 0.5
276 1 0.5 0.5 0.5
277 1 0.5 0.5 0.5
278 1 0.5 0.5 0.5
279 1 0.5 0.5 0.5
280 1 0.5 0.5 0.5
281 1 0.5 0.5 0.5
282 1 0.5 0.5 0.5
283 1 0.5 0.5 0.5
284 1 0.5 0.5 0.5
285 1 0.5 0.5 0.5
286 1 0.5 0.5 0.5
287 1 0.5 0.5 0.5
288 1 0.5 0.5 0.5
289 1 0.5 0.5 0.5
290 1 0.5 0.5 0.5
291 1 0.5 0.5 0.5
292 1 0.5 0.5 0.5
293 1 0.5 0.5 0.5
294 1 0.5 0.5 0.5
295 1 0.5 0.5 0.5
296 1 0.5 0.5 0.5
297 1 0.5 0.5 0.5
298 1 0.5 0.5 0.5
299 1 0.5 0.5 0.5
300 1 0.5 0.5 0.5
301 1 0.5 0.5 0.5
302 1 0.5 0.5 0.5
303 1 0.5 0.5 0.5
304 1 0.5 0.5 0.5
305 1 0.5 0.5 0.5
306 1 0.5 0.5 0.5
307 1 0.5 0.5 0.5
308 1 0.5 0.5 0.5
309 1 0.5 0.5 0.5
310 1 0.5 0.5 0.5
311 1 0.5 0.5 0.5
312 1 0.5 0.5 0.5
313 1 0.5 0.5 0.5
314 1 0.5 0.5 0.5
315 1 0.5 0.5 0.5
316 1 0.5 0.5 0.5
317 1 0.5 0.5 0.5
318 1 0.5 0.5 0.5
319 1 0.5 0.5 0.5
320 1 0.5 0.5 0.5
321 1 0.5 0.5 0.5
322 1 0.5 0.5 0.5
323 1 0.5 0.5 0.5
324 1 0.5 0.5 0.5
325 1 0.5 0.5 0.5
326 1 0.5 0.5 0.5
327 1 0.5 0.5 0.5
328 1 0.5 0.5 0.5
329 1 0.5 0.5 0.5
330 1 0.5 0.5 0.5
331 1 0.5 0.5 0.5
332 1 0.5 0.5 0.5
333 1 0.5 0.5 0.5
334 1 0.5 0.5 0.5
335 1 0.5 0.5 0.5
336 1 0.5 0.5 0.5
337 1 0.5 0.5 0.5
338 1 0.5 0.5 0.5
339 1 0.5 0.5 0.5
340 1 0.5 0.5 0.5
341 1 0.5 0.5 0.5
342 1 0.5 0.5 0.5
343 1 0.5 0.5 0.5
344 1 0.5 0.5 0.5
345 1 0.5 0.5 0.5
346 1 0.5 0.5 0.5
347 1 0.5 0.5 0.5
348 1 0.5 0.5 0.5
349 1 0.5 0.5 0.5
350 1 0.5 0.5 0.5
351 1 0.5 0.5 0.5
352 1 0.5 0.5 0.5
353 1 0.5 0.5 0.5
354 1 0.5 0.5 0.5
355 1 0.5 0.5 0.5
356 1 0.5 0.5 0.5
357 1 0.5 0.5 0.5
358 1 0.5 0.5 0.5
359 1 0.5 0.5 0.5
360 1 0.5 0.5 0.5
361 1 0.5 0.5 0.5
362 1 0.5 0.5 0.5
363 1 0.5 0.5 0.5
364 1 0.5 0.5 0.5
365 1 0.5 0.5 0.5
366 1 0.5 0.5 0.5
367 1 0.5 0.5 0.5
368 1 0.5 0.5 0.5