ITEM: TIMESTEP
0
ITEM: NUMBER OF ATOMS
2424
ITEM: BOX BOUNDS pp pp pp
-50 50
-50 50
-50 50
ITEM: ATOMS id type xs ys zs
2229 2 0.5 0.496501 0.337902
2230 2 0.5 0.503499 0.337902
1722 2 0.492783 0.485625 0.341955
2227 2 0.5 0.482518 0.342738
1716 2 0.507217 0.485625 0.341955
1731 2 0.485777 0.488889 0.343075
1723 2 0.492738 0.492783 0.339412
2228 2 0.5 0.4894 0.339536
1713 2 0.507262 0.492783 0.339412
1712 2 0.514223 0.488889 0.343075
1732 2 0.485727 0.496274 0.341271
1724 2 0.492743 0.5 0.33856
1709 2 0.507257 0.5 0.33856
1702 2 0.520982 0.5 0.345007
1708 2 0.514273 0.496274 0.341271
1733 2 0.485727 0.503726 0.341271
1740 2 0.479018 0.5 0.345007
1703 2 0.514273 0.503726 0.341271
1734 2 0.485777 0.511111 0.343075
1725 2 0.492738 0.507217 0.339412
2231 2 0.5 0.5106 0.339536
1704 2 0.507262 0.507217 0.339412
1697 2 0.514223 0.511111 0.343075
1726 2 0.492783 0.514375 0.341955
2232 2 0.5 0.517482 0.342738
1698 2 0.507217 0.514375 0.341955
1721 2 0.492818 0.478564 0.346214
2226 2 0.5 0.475683 0.347593
1718 2 0.507182 0.478564 0.346214
1730 2 0.48588 0.48155 0.346706
1738 2 0.479183 0.484814 0.348853
1711 2 0.520817 0.484814 0.348853
1715 2 0.51412 0.48155 0.346706
1739 2 0.479066 0.492375 0.345962
1707 2 0.520934 0.492375 0.345962
1746 2 0.472704 0.496098 0.350539
1701 2 0.527296 0.496098 0.350539
1747 2 0.472704 0.503902 0.350539
1695 2 0.527296 0.503902 0.350539
1741 2 0.479066 0.507625 0.345962
1696 2 0.520934 0.507625 0.345962
1735 2 0.48588 0.51845 0.346706
1742 2 0.479183 0.515186 0.348853
1689 2 0.520817 0.515186 0.348853
1690 2 0.51412 0.51845 0.346706
1727 2 0.492818 0.521436 0.346214
2233 2 0.5 0.524317 0.347593
1691 2 0.507182 0.521436 0.346214
1720 2 0.492906 0.471659 0.35219
2225 2 0.5 0.469154 0.353944
1719 2 0.507094 0.471659 0.35219
1737 2 0.479415 0.477363 0.353669
1729 2 0.486045 0.474378 0.352149
1717 2 0.513955 0.474378 0.352149
1714 2 0.520585 0.477363 0.353669
1744 2 0.473083 0.480636 0.356636
1710 2 0.526917 0.480636 0.356636
1751 2 0.466802 0.49203 0.357855
1745 2 0.472831 0.488304 0.352572
1706 2 0.527169 0.488304 0.352572
1700 2 0.533198 0.49203 0.357855
1752 2 0.466728 0.5 0.356774
1694 2 0.533272 0.5 0.356774
1753 2 0.466802 0.50797 0.357855
1748 2 0.472831 0.511696 0.352572
1688 2 0.527169 0.511696 0.352572
1687 2 0.533198 0.50797 0.357855
1749 2 0.473083 0.519364 0.356636
1680 2 0.526917 0.519364 0.356636
1743 2 0.479415 0.522637 0.353669
1736 2 0.486045 0.525622 0.352149
1682 2 0.513955 0.525622 0.352149
1681 2 0.520585 0.522637 0.353669
1728 2 0.492906 0.528341 0.35219
2234 2 0.5 0.530846 0.353944
1683 2 0.507094 0.528341 0.35219
1213 2 0.5 0.462808 0.361943
2312 2 0.479869 0.470076 0.360378
2313 2 0.486457 0.467313 0.359461
2314 2 0.493123 0.464904 0.359971
2315 2 0.506877 0.464904 0.359971
2316 2 0.513543 0.467313 0.359461
2317 2 0.520131 0.470076 0.360378
2311 2 0.473603 0.473086 0.362667
2318 2 0.526397 0.473086 0.362667
1750 2 0.467057 0.484125 0.361068
1705 2 0.532943 0.484125 0.361068
1756 2 0.461205 0.495925 0.364607
1693 2 0.538795 0.495925 0.364607
1757 2 0.461205 0.504075 0.364607
1686 2 0.538795 0.504075 0.364607
1754 2 0.467057 0.515875 0.361068
1679 2 0.532943 0.515875 0.361068
2221 2 0.473603 0.526914 0.362667
2238 2 0.526397 0.526914 0.362667
2222 2 0.479869 0.529924 0.360378
2223 2 0.486457 0.532687 0.359461
2224 2 0.493123 0.535096 0.359971
2235 2 0.506877 0.535096 0.359971
2236 2 0.513543 0.532687 0.359461
2237 2 0.520131 0.529924 0.360378
1220 2 0.5 0.537192 0.361943
1451 2 0.481606 0.462757 0.368626
1450 2 0.488522 0.460181 0.368465
2384 2 0.49575 0.458027 0.369721
2385 2 0.50425 0.458027 0.369721
1449 2 0.511478 0.460181 0.368465
1448 2 0.518394 0.462757 0.368626
1452 2 0.474954 0.465685 0.370227
1446 2 0.525046 0.465685 0.370227
2310 2 0.467502 0.476417 0.36638
2319 2 0.532498 0.476417 0.36638
2309 2 0.461841 0.479915 0.371341
2320 2 0.538159 0.479915 0.371341
1755 2 0.461406 0.487853 0.366868
1699 2 0.538594 0.487853 0.366868
1685 2 0.543973 0.5 0.372866
1760 2 0.456027 0.5 0.372866
1758 2 0.461406 0.512147 0.366868
1678 2 0.538594 0.512147 0.366868
2219 2 0.461841 0.520085 0.371341
2240 2 0.538159 0.520085 0.371341
2220 2 0.467502 0.523583 0.36638
2239 2 0.532498 0.523583 0.36638
2007 2 0.474954 0.534315 0.370227
1984 2 0.525046 0.534315 0.370227
1999 2 0.481606 0.537243 0.368626
1990 2 0.488522 0.539819 0.368465
2144 2 0.49575 0.541973 0.369721
2145 2 0.50425 0.541973 0.369721
1989 2 0.511478 0.539819 0.368465
1987 2 0.518394 0.537243 0.368626
1459 2 0.484193 0.455984 0.378229
2383 2 0.49163 0.453769 0.378664
1278 2 0.5 0.453087 0.378523
2386 2 0.50837 0.453769 0.378664
1447 2 0.515807 0.455984 0.378229
1460 2 0.477154 0.458703 0.379099
1445 2 0.522846 0.458703 0.379099
1453 2 0.468595 0.468886 0.373296
1443 2 0.531405 0.468886 0.373296
1454 2 0.462573 0.472384 0.377716
1439 2 0.537427 0.472384 0.377716
2308 2 0.456452 0.483686 0.377697
2321 2 0.543548 0.483686 0.377697
1759 2 0.456156 0.491738 0.374051
1692 2 0.543844 0.491738 0.374051
1761 2 0.456156 0.508262 0.374051
1677 2 0.543844 0.508262 0.374051
2218 2 0.456452 0.516314 0.377697
2241 2 0.543548 0.516314 0.377697
2020 2 0.462573 0.527616 0.377716
1975 2 0.537427 0.527616 0.377716
2014 2 0.468595 0.531114 0.373296
1980 2 0.531405 0.531114 0.373296
2000 2 0.477154 0.541297 0.379099
1985 2 0.522846 0.541297 0.379099
1991 2 0.484193 0.544016 0.378229
2143 2 0.49163 0.546231 0.378664
2124 2 0.5 0.546913 0.378523
2146 2 0.50837 0.546231 0.378664
1988 2 0.515807 0.544016 0.378229
1461 2 0.470393 0.4618 0.381483
1442 2 0.529607 0.4618 0.381483
1462 2 0.46401 0.465209 0.385317
1438 2 0.53599 0.465209 0.385317
1455 2 0.456918 0.476103 0.383528
1434 2 0.543082 0.476103 0.383528
2307 2 0.451582 0.487558 0.385166
2322 2 0.548418 0.487558 0.385166
1762 2 0.45136 0.495814 0.382543
1684 2 0.54864 0.495814 0.382543
1763 2 0.45136 0.504186 0.382543
1676 2 0.54864 0.504186 0.382543
2217 2 0.451582 0.512442 0.385166
2242 2 0.548418 0.512442 0.385166
2025 2 0.456918 0.523897 0.383528
1969 2 0.543082 0.523897 0.383528
2015 2 0.46401 0.534791 0.385317
1976 2 0.53599 0.534791 0.385317
2008 2 0.470393 0.5382 0.381483
1981 2 0.529607 0.5382 0.381483
2382 2 0.487558 0.449945 0.388921
1286 2 0.495814 0.448802 0.388413
1277 2 0.504186 0.448802 0.388413
2387 2 0.512442 0.449945 0.388921
1468 2 0.472911 0.455207 0.390832
1467 2 0.48006 0.452317 0.389181
1444 2 0.51994 0.452317 0.389181
1441 2 0.527089 0.455207 0.390832
1469 2 0.466128 0.458503 0.393988
1437 2 0.533872 0.458503 0.393988
1463 2 0.457981 0.468936 0.3906
1433 2 0.542019 0.468936 0.3906
1456 2 0.451695 0.48006 0.390609
1428 2 0.548305 0.48006 0.390609
2306 2 0.447111 0.49163 0.393939
2323 2 0.552889 0.49163 0.393939
1764 2 0.447049 0.5 0.392374
1675 2 0.552951 0.5 0.392374
2216 2 0.447111 0.50837 0.393939
2243 2 0.552889 0.50837 0.393939
2029 2 0.451695 0.51994 0.390609
1962 2 0.548305 0.51994 0.390609
2021 2 0.457981 0.531064 0.3906
1970 2 0.542019 0.531064 0.3906
2009 2 0.466128 0.541497 0.393988
1977 2 0.533872 0.541497 0.393988
2001 2 0.472911 0.544793 0.390832
1992 2 0.48006 0.547683 0.389181
1986 2 0.51994 0.547683 0.389181
1982 2 0.527089 0.544793 0.390832
2142 2 0.487558 0.550055 0.388921
2123 2 0.495814 0.551198 0.388413
2122 2 0.504186 0.551198 0.388413
2147 2 0.512442 0.550055 0.388921
1474 2 0.476103 0.449231 0.401164
2381 2 0.483686 0.446689 0.400094
1293 2 0.491738 0.4451 0.399414
1285 2 0.5 0.444584 0.399119
1276 2 0.508262 0.4451 0.399414
2388 2 0.516314 0.446689 0.400094
1440 2 0.523897 0.449231 0.401164
1470 2 0.459736 0.462148 0.398676
1432 2 0.540264 0.462148 0.398676
1464 2 0.452415 0.472911 0.397237
1427 2 0.547585 0.472911 0.397237
1457 2 0.446921 0.484193 0.39902
1421 2 0.553079 0.484193 0.39902
2032 2 0.446921 0.515807 0.39902
1954 2 0.553079 0.515807 0.39902
2026 2 0.452415 0.527089 0.397237
1963 2 0.547585 0.527089 0.397237
2016 2 0.459736 0.537852 0.398676
1971 2 0.540264 0.537852 0.398676
1993 2 0.476103 0.550769 0.401164
2141 2 0.483686 0.553311 0.400094
2121 2 0.491738 0.5549 0.399414
2120 2 0.5 0.555416 0.399119
2119 2 0.508262 0.5549 0.399414
2148 2 0.516314 0.553311 0.400094
1983 2 0.523897 0.550769 0.401164
1476 2 0.462148 0.455834 0.407628
1475 2 0.468936 0.452314 0.403601
1436 2 0.531064 0.452314 0.403601
1431 2 0.537852 0.455834 0.407628
1471 2 0.45379 0.466128 0.4048
1426 2 0.54621 0.466128 0.4048
1465 2 0.4473 0.477154 0.405259
1420 2 0.5527 0.477154 0.405259
2305 2 0.443213 0.49575 0.403706
2324 2 0.556787 0.49575 0.403706
2215 2 0.443213 0.50425 0.403706
2244 2 0.556787 0.50425 0.403706
2030 2 0.4473 0.522846 0.405259
1955 2 0.5527 0.522846 0.405259
2022 2 0.45379 0.533872 0.4048
1964 2 0.54621 0.533872 0.4048
2010 2 0.462148 0.544166 0.407628
2002 2 0.468936 0.547686 0.403601
1978 2 0.531064 0.547686 0.403601
1972 2 0.537852 0.544166 0.407628
1299 2 0.487853 0.441969 0.41146
1292 2 0.495925 0.440983 0.410998
1284 2 0.504075 0.440983 0.410998
1275 2 0.512147 0.441969 0.41146
1480 2 0.472384 0.446698 0.414135
2380 2 0.479915 0.443919 0.412458
2389 2 0.520085 0.443919 0.412458
1435 2 0.527616 0.446698 0.414135
1477 2 0.455834 0.459736 0.413161
1425 2 0.544166 0.459736 0.413161
1472 2 0.44834 0.470393 0.412363
1419 2 0.55166 0.470393 0.412363
1466 2 0.442736 0.481606 0.414558
1412 2 0.557264 0.481606 0.414558
1458 2 0.442665 0.488522 0.408649
1413 2 0.557335 0.488522 0.408649
1223 2 0.560178 0.5 0.414676
1224 2 0.439822 0.5 0.414676
2034 2 0.442665 0.511478 0.408649
1945 2 0.557335 0.511478 0.408649
2033 2 0.442736 0.518394 0.414558
1946 2 0.557264 0.518394 0.414558
2027 2 0.44834 0.529607 0.412363
1956 2 0.55166 0.529607 0.412363
2017 2 0.455834 0.540264 0.413161
1965 2 0.544166 0.540264 0.413161
1994 2 0.472384 0.553302 0.414135
2140 2 0.479915 0.556081 0.412458
2149 2 0.520085 0.556081 0.412458
1979 2 0.527616 0.553302 0.414135
2118 2 0.487853 0.558031 0.41146
2117 2 0.495925 0.559017 0.410998
2116 2 0.504075 0.559017 0.410998
2115 2 0.512147 0.558031 0.41146
1481 2 0.465209 0.450011 0.417433
1430 2 0.534791 0.450011 0.417433
1482 2 0.458503 0.45379 0.422293
1424 2 0.541497 0.45379 0.422293
1478 2 0.450011 0.46401 0.420185
1418 2 0.549989 0.46401 0.420185
1473 2 0.443433 0.474954 0.421277
1411 2 0.556567 0.474954 0.421277
2304 2 0.438963 0.493123 0.419483
2325 2 0.561037 0.493123 0.419483
2214 2 0.438963 0.506877 0.419483
2155 2 0.561037 0.506877 0.419483
2031 2 0.443433 0.525046 0.421277
1947 2 0.556567 0.525046 0.421277
2023 2 0.450011 0.53599 0.420185
1957 2 0.549989 0.53599 0.420185
2011 2 0.458503 0.54621 0.422293
1966 2 0.541497 0.54621 0.422293
2003 2 0.465209 0.549989 0.417433
1973 2 0.534791 0.549989 0.417433
2379 2 0.476417 0.441756 0.425445
1304 2 0.484125 0.439441 0.424424
1298 2 0.49203 0.43804 0.423839
1291 2 0.5 0.437569 0.423669
1283 2 0.50797 0.43804 0.423839
1274 2 0.515875 0.439441 0.424424
2390 2 0.523583 0.441756 0.425445
1485 2 0.468886 0.444771 0.427953
1429 2 0.531114 0.444771 0.427953
1483 2 0.452314 0.457981 0.428733
1417 2 0.547686 0.457981 0.428733
1479 2 0.444771 0.468595 0.42862
1410 2 0.555229 0.468595 0.42862
2303 2 0.438741 0.486457 0.42501
2326 2 0.561259 0.486457 0.42501
2245 2 0.563664 0.5 0.429234
2294 2 0.436336 0.5 0.429234
2213 2 0.438741 0.513543 0.42501
2156 2 0.561259 0.513543 0.42501
2028 2 0.444771 0.531405 0.42862
1948 2 0.555229 0.531405 0.42862
2018 2 0.452314 0.542019 0.428733
1958 2 0.547686 0.542019 0.428733
1995 2 0.468886 0.555229 0.427953
1974 2 0.531114 0.555229 0.427953
2139 2 0.476417 0.558244 0.425445
2114 2 0.484125 0.560559 0.424424
2113 2 0.49203 0.56196 0.423839
2112 2 0.5 0.562431 0.423669
2111 2 0.50797 0.56196 0.423839
2110 2 0.515875 0.560559 0.424424
2150 2 0.523583 0.558244 0.425445
1486 2 0.4618 0.44834 0.432076
1423 2 0.5382 0.44834 0.432076
2302 2 0.43914 0.479869 0.43135
2327 2 0.56086 0.479869 0.43135
1503 2 0.435571 0.492906 0.434981
1638 2 0.564429 0.492906 0.434981
1765 2 0.435571 0.507094 0.434981
1944 2 0.564429 0.507094 0.434981
2212 2 0.43914 0.520131 0.43135
2157 2 0.56086 0.520131 0.43135
2004 2 0.4618 0.55166 0.432076
1967 2 0.5382 0.55166 0.432076
1303 2 0.488304 0.435738 0.43767
1297 2 0.496098 0.434852 0.437378
1290 2 0.503902 0.434852 0.437378
1282 2 0.511696 0.435738 0.43767
1489 2 0.465685 0.443433 0.442541
2378 2 0.473086 0.440138 0.439442
1308 2 0.480636 0.437509 0.438249
1273 2 0.519364 0.437509 0.438249
2391 2 0.526914 0.440138 0.439442
1422 2 0.534315 0.443433 0.442541
1487 2 0.455207 0.452415 0.437854
1416 2 0.544793 0.452415 0.437854
1484 2 0.446698 0.462573 0.436644
1409 2 0.553302 0.462573 0.436644
2301 2 0.440138 0.473603 0.438255
2328 2 0.559862 0.473603 0.438255
1502 2 0.435553 0.486045 0.441219
1646 2 0.564447 0.486045 0.441219
1766 2 0.435553 0.513955 0.441219
1943 2 0.564447 0.513955 0.441219
2211 2 0.440138 0.526397 0.438255
2158 2 0.559862 0.526397 0.438255
2024 2 0.446698 0.537427 0.436644
1949 2 0.553302 0.537427 0.436644
2012 2 0.455207 0.547585 0.437854
1959 2 0.544793 0.547585 0.437854
1996 2 0.465685 0.556567 0.442541
2138 2 0.473086 0.559862 0.439442
2109 2 0.480636 0.562491 0.438249
2104 2 0.519364 0.562491 0.438249
2151 2 0.526914 0.559862 0.439442
1968 2 0.534315 0.556567 0.442541
2108 2 0.488304 0.564262 0.43767
2107 2 0.496098 0.565148 0.437378
2106 2 0.503902 0.565148 0.437378
2105 2 0.511696 0.564262 0.43767
1490 2 0.458703 0.4473 0.447587
1415 2 0.541297 0.4473 0.447587
1488 2 0.449231 0.456918 0.445176
1408 2 0.550769 0.456918 0.445176
2300 2 0.441756 0.467502 0.445896
2329 2 0.558244 0.467502 0.445896
1501 2 0.436216 0.479415 0.448068
1653 2 0.563784 0.479415 0.448068
2246 2 0.566433 0.5 0.444213
2293 2 0.433567 0.5 0.444213
1767 2 0.436216 0.520585 0.448068
1941 2 0.563784 0.520585 0.448068
2210 2 0.441756 0.532498 0.445896
2159 2 0.558244 0.532498 0.445896
2019 2 0.449231 0.543082 0.445176
1950 2 0.550769 0.543082 0.445176
2005 2 0.458703 0.5527 0.447587
1960 2 0.541297 0.5527 0.447587
1311 2 0.477363 0.436216 0.452774
1307 2 0.484814 0.434116 0.452243
1302 2 0.492375 0.432857 0.451974
1296 2 0.5 0.43244 0.451863
1289 2 0.507625 0.432857 0.451974
1281 2 0.515186 0.434116 0.452243
1272 2 0.522637 0.436216 0.452774
2377 2 0.470076 0.43914 0.453816
2392 2 0.529924 0.43914 0.453816
1491 2 0.452317 0.451695 0.454255
1407 2 0.547683 0.451695 0.454255
2299 2 0.443919 0.461841 0.453922
2330 2 0.556081 0.461841 0.453922
1500 2 0.437509 0.473083 0.455575
1659 2 0.562491 0.473083 0.455575
1510 2 0.433181 0.48588 0.457672
1645 2 0.566819 0.48588 0.457672
1511 2 0.432966 0.492818 0.450822
1637 2 0.567034 0.492818 0.450822
1774 2 0.432966 0.507182 0.450822
1942 2 0.567034 0.507182 0.450822
1775 2 0.433181 0.51412 0.457672
1940 2 0.566819 0.51412 0.457672
1768 2 0.437509 0.526917 0.455575
1938 2 0.562491 0.526917 0.455575
2209 2 0.443919 0.538159 0.453922
2160 2 0.556081 0.538159 0.453922
2013 2 0.452317 0.548305 0.454255
1951 2 0.547683 0.548305 0.454255
2137 2 0.470076 0.56086 0.453816
2152 2 0.529924 0.56086 0.453816
2103 2 0.477363 0.563784 0.452774
2102 2 0.484814 0.565884 0.452243
2101 2 0.492375 0.567143 0.451974
2100 2 0.5 0.56756 0.451863
2099 2 0.507625 0.567143 0.451974
2098 2 0.515186 0.565884 0.452243
2097 2 0.522637 0.563784 0.452774
1492 2 0.462757 0.442736 0.457802
1414 2 0.537243 0.442736 0.457802
1493 2 0.455984 0.446921 0.463737
1406 2 0.544016 0.446921 0.463737
2298 2 0.446689 0.456452 0.462573
2331 2 0.553311 0.456452 0.462573
1499 2 0.439441 0.467057 0.463581
1664 2 0.560559 0.467057 0.463581
2247 2 0.568549 0.5 0.459893
2292 2 0.431451 0.5 0.459893
1769 2 0.439441 0.532943 0.463581
1934 2 0.560559 0.532943 0.463581
2208 2 0.446689 0.543548 0.462573
2161 2 0.553311 0.543548 0.462573
2006 2 0.455984 0.553079 0.463737
1952 2 0.544016 0.553079 0.463737
1997 2 0.462757 0.557264 0.457802
1961 2 0.537243 0.557264 0.457802
1313 2 0.474378 0.435553 0.467985
1310 2 0.48155 0.433181 0.467607
1306 2 0.488889 0.431598 0.467369
1301 2 0.496274 0.430812 0.467255
1295 2 0.503726 0.430812 0.467255
1288 2 0.511111 0.431598 0.467369
1280 2 0.51845 0.433181 0.467607
1271 2 0.525622 0.435553 0.467985
2376 2 0.467313 0.438741 0.468929
2393 2 0.532687 0.438741 0.468929
2297 2 0.449945 0.451582 0.471457
2332 2 0.550055 0.451582 0.471457
1509 2 0.434116 0.479183 0.465161
1652 2 0.565884 0.479183 0.465161
1518 2 0.43111 0.492783 0.467022
1636 2 0.56889 0.492783 0.467022
1782 2 0.43111 0.507217 0.467022
1939 2 0.56889 0.507217 0.467022
1776 2 0.434116 0.520817 0.465161
1937 2 0.565884 0.520817 0.465161
2207 2 0.449945 0.548418 0.471457
2162 2 0.550055 0.548418 0.471457
2136 2 0.467313 0.561259 0.468929
2153 2 0.532687 0.561259 0.468929
2096 2 0.474378 0.564447 0.467985
2095 2 0.48155 0.566819 0.467607
2094 2 0.488889 0.568402 0.467369
2093 2 0.496274 0.569188 0.467255
2092 2 0.503726 0.569188 0.467255
2091 2 0.511111 0.568402 0.467369
2090 2 0.51845 0.566819 0.467607
2089 2 0.525622 0.564447 0.467985
1494 2 0.460181 0.442665 0.473667
1405 2 0.539819 0.442665 0.473667
1498 2 0.441969 0.461406 0.472132
1668 2 0.558031 0.461406 0.472132
1508 2 0.435738 0.472831 0.473167
1658 2 0.564262 0.472831 0.473167
1517 2 0.431598 0.485777 0.474509
1644 2 0.568402 0.485777 0.474509
2248 2 0.569945 0.5 0.475682
2291 2 0.430055 0.5 0.475682
1783 2 0.431598 0.514223 0.474509
1936 2 0.568402 0.514223 0.474509
1777 2 0.435738 0.527169 0.473167
1933 2 0.564262 0.527169 0.473167
1770 2 0.441969 0.538594 0.472132
1929 2 0.558031 0.538594 0.472132
1998 2 0.460181 0.557335 0.473667
1953 2 0.539819 0.557335 0.473667
1314 2 0.471659 0.435571 0.483726
1312 2 0.478564 0.432966 0.483523
1309 2 0.485625 0.43111 0.483442
1305 2 0.492783 0.430001 0.48334
1300 2 0.5 0.42963 0.483352
1294 2 0.507217 0.430001 0.48334
1287 2 0.514375 0.43111 0.483442
1279 2 0.521436 0.432966 0.483523
1270 2 0.528341 0.435571 0.483726
2375 2 0.464904 0.438963 0.484223
2394 2 0.535096 0.438963 0.484223
2296 2 0.453769 0.447111 0.480797
2333 2 0.546231 0.447111 0.480797
1497 2 0.4451 0.456156 0.481046
1671 2 0.5549 0.456156 0.481046
1507 2 0.43804 0.466802 0.481715
1663 2 0.56196 0.466802 0.481715
1516 2 0.432857 0.479066 0.482507
1651 2 0.567143 0.479066 0.482507
1524 2 0.430001 0.492738 0.483444
1635 2 0.569999 0.492738 0.483444
1789 2 0.430001 0.507262 0.483444
1935 2 0.569999 0.507262 0.483444
1784 2 0.432857 0.520934 0.482507
1932 2 0.567143 0.520934 0.482507
1778 2 0.43804 0.533198 0.481715
1928 2 0.56196 0.533198 0.481715
1771 2 0.4451 0.543844 0.481046
1923 2 0.5549 0.543844 0.481046
2206 2 0.453769 0.552889 0.480797
2163 2 0.546231 0.552889 0.480797
2135 2 0.464904 0.561037 0.484223
2154 2 0.535096 0.561037 0.484223
2088 2 0.471659 0.564429 0.483726
2087 2 0.478564 0.567034 0.483523
2086 2 0.485625 0.56889 0.483442
2085 2 0.492783 0.569999 0.48334
2084 2 0.5 0.57037 0.483352
2083 2 0.507217 0.569999 0.48334
2082 2 0.514375 0.56889 0.483442
2081 2 0.521436 0.567034 0.483523
2080 2 0.528341 0.564429 0.483726
2295 2 0.458027 0.443213 0.490249
2334 2 0.541973 0.443213 0.490249
1496 2 0.448802 0.45136 0.490397
1673 2 0.551198 0.45136 0.490397
1506 2 0.440983 0.461205 0.490652
1667 2 0.559017 0.461205 0.490652
1515 2 0.434852 0.472704 0.491048
1657 2 0.565148 0.472704 0.491048
1523 2 0.430812 0.485727 0.491452
1643 2 0.569188 0.485727 0.491452
2249 2 0.570657 0.5 0.491974
2290 2 0.429343 0.5 0.491974
1790 2 0.430812 0.514273 0.491452
1931 2 0.569188 0.514273 0.491452
1785 2 0.434852 0.527296 0.491048
1927 2 0.565148 0.527296 0.491048
1779 2 0.440983 0.538795 0.490652
1922 2 0.559017 0.538795 0.490652
1772 2 0.448802 0.54864 0.490397
1916 2 0.551198 0.54864 0.490397
2205 2 0.458027 0.556787 0.490249
2164 2 0.541973 0.556787 0.490249
1495 2 0.453087 0.447049 0.5
1674 2 0.546913 0.447049 0.5
1514 2 0.437569 0.466728 0.5
1662 2 0.562431 0.466728 0.5
1529 2 0.42963 0.492743 0.5
1795 2 0.42963 0.507257 0.5
1930 2 0.57037 0.507257 0.5
1786 2 0.437569 0.533272 0.5
1921 2 0.562431 0.533272 0.5
1773 2 0.453087 0.552951 0.5
1908 2 0.546913 0.552951 0.5
2406 2 0.496501 0.429343 0.5
2404 2 0.503499 0.429343 0.5
2414 2 0.469154 0.436336 0.5
2412 2 0.475683 0.433567 0.5
2410 2 0.482518 0.431451 0.5
2408 2 0.4894 0.430055 0.5
2402 2 0.5106 0.430055 0.5
2400 2 0.517482 0.431451 0.5
2398 2 0.524317 0.433567 0.5
2396 2 0.530846 0.436336 0.5
1218 2 0.462808 0.439822 0.5
1217 2 0.537192 0.439822 0.5
1505 2 0.444584 0.456027 0.5
1670 2 0.555416 0.456027 0.5
1522 2 0.43244 0.479018 0.5
1650 2 0.56756 0.479018 0.5
1634 2 0.57037 0.492743 0.5
1 1 0.5 0.5 0.5
2 1 0.5 0.5 0.5
3 1 0.5 0.5 0.5
4 1 0.5 0.5 0.5
5 1 0.5 0.5 0.5
6 1 0.5 0.5 0.5
7 1 0.5 0.5 0.5
8 1 0.5 0.5 0.5
9 1 0.5 0.5 0.5
10 1 0.5 0.5 0.5
11 1 0.5 0.5 0.5
12 1 0.5 0.5 0.5
13 1 0.5 0.5 0.5
14 1 0.5 0.5 0.5
15 1 0.5 0.5 0.5
16 1 0.5 0.5 0.5
17 1 0.5 0.5 0.5
18 1 0.5 0.5 0.5
19 1 0.5 0.5 0.5
20 1 0.5 0.5 0.5
21 1 0.5 0.5 0.5
22 1 0.5 0.5 0.5
23 1 0.5 0.5 0.5
24 1 0.5 0.5 0.5
25 1 0.5 0.5 0.5
26 1 0.5 0.5 0.5
27 1 0.5 0.5 0.5
28 1 0.5 0.5 0.5
29 1 0.5 0.5 0.5
30 1 0.5 0.5 0.5
31 1 0.5 0.5 0.5
32 1 0.5 0.5 0.5
33 1 0.5 0.5 0.5
34 1 0.5 0.5 0.5
35 1 0.5 0.5 0.5
36 1 0.5 0.5 0.5
37 1 0.5 0.5 0.5
38 1 0.5 0.5 0.5
39 1 0.5 0.5 0.5
40 1 0.5 0.5 0.5
41 1 0.5 0.5 0.5
42 1 0.5 0.5 0.5
43 1 0.5 0.5 0.5
44 1 0.5 0.5 0.5
45 1 0.5 0.5 0.5
46 1 0.5 0.5 0.5
47 1 0.5 0.5 0.5
48 1 0.5 0.5 0.5
49 1 0.5 0.5 0.5
50 1 0.5 0.5 0.5
51 1 0.5 0.5 0.5
52 1 0.5 0.5 0.5
53 1 0.5 0.5 0.5
54 1 0.5 0.5 0.5
55 1 0.5 0.5 0.5
56 1 0.5 0.5 0.5
57 1 0.5 0.5 0.5
58 1 0.5 0.5 0.5
59 1 0.5 0.5 0.5
60 1 0.5 0.5 0.5
61 1 0.5 0.5 0.5
62 1 0.5 0.5 0.5
63 1 0.5 0.5 0.5
64 1 0.5 0.5 0.5
65 1 0.5 0.5 0.5
66 1 0.5 0.5 0.5
67 1 0.5 0.5 0.5
68 1 0.5 0.5 0.5
69 1 0.5 0.5 0.5
70 1 0.5 0.5 0.5
71 1 0.5 0.5 0.5
72 1 0.5 0.5 0.5
73 1 0.5 0.5 0.5
74 1 0.5 0.5 0.5
75 1 0.5 0.5 0.5
76 1 0.5 0.5 0.5
77 1 0.5 0.5 0.5
78 1 0.5 0.5 0.5
79 1 0.5 0.5 0.5
80 1 0.5 0.5 0.5
81 1 0.5 0.5 0.5
82 1 0.5 0.5 0.5
83 1 0.5 0.5 0.5
84 1 0.5 0.5 0.5
85 1 0.5 0.5 0.5
86 1 0.5 0.5 0.5
87 1 0.5 0.5 0.5
88 1 0.5 0.5 0.5
89 1 0.5 0.5 0.5
90 1 0.5 0.5 0.5
91 1 0.5 0.5 0.5
92 1 0.5 0.5 0.5
93 1 0.5 0.5 0.5
94 1 0.5 0.5 0.5
95 1 0.5 0.5 0.5
96 1 0.5 0.5 0.5
97 1 0.5 0.5 0.5
98 1 0.5 0.5 0.5
99 1 0.5 0.5 0.5
100 1 0.5 0.5 0.5
101 1 0.5 0.5 0.5
102 1 0.5 0.5 0.5
103 1 0.5 0.5 0.5
104 1 0.5 0.5 0.5
105 1 0.5 0.5 0.5
106 1 0.5 0.5 0.5
107 1 0.5 0.5 0.5
108 1 0.5 0.5 0.5
109 1 0.5 0.5 0.5
110 1 0.5 0.5 0.5
111 1 0.5 0.5 0.5
112 1 0.5 0.5 0.5
113 1 0.5 0.5 0.5
114 1 0.5 0.5 0.5
115 1 0.5 0.5 0.5
116 1 0.5 0.5 0.5
117 1 0.5 0.5 0.5
118 1 0.5 0.5 0.5
119 1 0.5 0.5 0.5
120 1 0.5 0.5 0.5
121 1 0.5 0.5 0.5
122 1 0.5 0.5 0.5
123 1 0.5 0.5 0.5
124 1 0.5 0.5 0.5
125 1 0.5 0.5 0.5
126 1 0.5 0.5 0.5
127 1 0.5 0.5 0.5
128 1 0.5 0.5 0.5
129 1 0.5 0.5 0.5
130 1 0.5 0.5 0.5
131 1 0.5 0.5 0.5
132 1 0.5 0.5 0.5
133 1 0.5 0.5 0.5
134 1 0.5 0.5 0.5
135 1 0.5 0.5 0.5
136 1 0.5 0.5 0.5
137 1 0.5 0.5 0.5
138 1 0.5 0.5 0.5
139 1 0.5 0.5 0.5
140 1 0.5 0.5 0.5
141 1 0.5 0.5 0.5
142 1 0.5 0.5 0.5
143 1 0.5 0.5 0.5
144 1 0.5 0.5 0.5
145 1 0.5 0.5 0.5
146 1 0.5 0.5 0.5
147 1 0.5 0.5 0.5
148 1 0.5 0.5 0.5
149 1 0.5 0.5 0.5
150 1 0.5 0.5 0.5
151 1 0.5 0.5 0.5
152 1 0.5 0.5 0.5
153 1 0.5 0.5 0.5
154 1 0.5 0.5 0.5
155 1 0.5 0.5 0.5
156 1 0.5 0.5 0.5
157 1 0.5 0.5 0.5
158 1 0.5 0.5 0.5
159 1 0.5 0.5 0.5
160 1 0.5 0.5 0.5
161 1 0.5 0.5 0.5
162 1 0.5 0.5 0.5
163 1 0.5 0.5 0.5
164 1 0.5 0.5 0.5
165 1 0.5 0.5 0.5
166 1 0.5 0.5 0.5
167 1 0.5 0.5 0.5
168 1 0.5 0.5 0.5
169 1 0.5 0.5 0.5
170 1 0.5 0.5 0.5
171 1 0.5 0.5 0.5
172 1 0.5 0.5 0.5
173 1 0.5 0.5 0.5
174 1 0.5 0.5 0.5
175 1 0.5 0.5 0.5
176 1 0.5 0.5 0.5
177 1 0.5 0.5 0.5
178 1 0.5 0.5 0.5
179 1 0.5 0.5 0.5
180 1 0.5 0.5 0.5
181 1 0.5 0.5 0.5
182 1 0.5 0.5 0.5
183 1 0.5 0.5 0.5
184 1 0.5 0.5 0.5
185 1 0.5 0.5 0.5
186 1 0.5 0.5 0.5
187 1 0.5 0.5 0.5
188 1 0.5 0.5 0.5
189 1 0.5 0.5 0.5
190 1 0.5 0.5 0.5
191 1 0.5 0.5 0.5
192 1 0.5 0.5 0.5
193 1 0.5 0.5 0.5
194 1 0.5 0.5 0.5
195 1 0.5 0.5 0.5
196 1 0.5 0.5 0.5
197 1 0.5 0.5 0.5
198 1 0.5 0.5 0.5
199 1 0.5 0.5 0.5
200 1 0.5 0.5 0.5
201 1 0.5 0.5 0.5
202 1 0.5 0.5 0.5
203 1 0.5 0.5 0.5
204 1 0.5 0.5 0.5
205 1 0.5 0.5 0.5
206 1 0.5 0.5 0.5
207 1 0.5 0.5 0.5
208 1 0.5 0.5 0.5
209 1 0.5 0.5 0.5
210 1 0.5 0.5 0.5
211 1 0.5 0.5 0.5
212 1 0.5 0.5 0.5
213 1 0.5 0.5 0.5
214 1 0.5 0.5 0.5
215 1 0.5 0.5 0.5
216 1 0.5 0.5 0.5
217 1 0.5 0.5 0.5
218 1 0.5 0.5 0.5
219 1 0.5 0.5 0.5
220 1 0.5 0.5 0.5
221 1 0.5 0.5 0.5
222 1 0.5 0.5 0.5
223 1 0.5 0.5 0.5
224 1 0.5 0.5 0.5
225 1 0.5 0.5 0.5
226 1 0.5 0.5 0.5
227 1 0.5 0.5 0.5
228 1 0.5 0.5 0.5
229 1 0.5 0.5 0.5
230 1 0.5 0.5 0.5
231 1 0.5 0.5 0.5
232 1 0.5 0.5 0.5
233 1 0.5 0.5 0.5
234 1 0.5 0.5 0.5
235 1 0.5 0.5 0.5
236 1 0.5 0.5 0.5
237 1 0.5 0.5 0.5
238 1 0.5 0.5 0.5
239 1 0.5 0.5 0.5
240 1 0.5 0.5 0.5
241 1 0.5 0.5 0.5
242 1 0.5 0.5 0.5
243 1 0.5 0.5 0.5
244 1 0.5 0.5 0.5
245 1 0.5 0.5 0.5
246 1 0.5 0.5 0.5
247 1 0.5 0.5 0.5
248 1 0.5 0.5 0.5
249 1 0.5 0.5 0.5
250 1 0.5 0.5 0.5
251 1 0.5 0.5 0.5
252 1 0.5 0.5 0.5
253 1 0.5 0.5 0.5
254 1 0.5 0.5 0.5
255 1 0.5 0.5 0.5
256 1 0.5 0.5 0.5
257 1 0.5 0.5 0.5
258 1 0.5 0.5 0.5
259 1 0.5 0.5 0.5
260 1 0.5 0.5 0.5
261 1 0.5 0.5 0.5
262 1 0.5 0.5 0.5
263 1 0.5 0.5 0.5
264 1 0.5 0.5 0.5
265 1 0.5 0.5 0.5
266 1 0.5 0.5 0.5
267 1 0.5 0.5 0.5
268 1 0.5 0.5 0.5
269 1 0.5 0.5 0.5
270 1 0.5 0.5 0.5
271 1 0.5 0.5 0.5
272 1 0.5 0.5 0.5
273 1 0.5 0.5 0.5
274 1 0.5 0.5 0.5
275 1 0.5 0.5 0.5
276 1 0.5 0.5 0.5
277 1 0.5 0.5 0.5
278 1 0.5 0.5 0.5
279 1 0.5 0.5 0.5
280 1 0.5 0.5 0.5
281 1 0.5 0.5 0.5
282 1 0.5 0.5 0.5
283 1 0.5 0.5 0.5
284 1 0.5 0.5 0.5
285 1 0.5 0.5 0.5
286 1 0.5 0.5 0.5
287 1 0.5 0.5 0.5
288 1 0.5 0.5 0.5
289 1 0.5 0.5 0.5
290 1 0.5 0.5 0.5
291 1 0.5 0.5 0.5
292 1 0.5 0.5 0.5
293 1 0.5 0.5 0.5
294 1 0.5 0.5 0.5
295 1 0.5 0.5 0.5
296 1 0.5 0.5 0.5
297 1 0.5 0.5 0.5
298 1 0.5 0.5 0.5
299 1 0.5 0.5 0.5
300 1 0.5 0.5 0.5
301 1 0.5 0.5 0.5
302 1 0.5 0.5 0.5
303 1 0.5 0.5 0.5
304 1 0.5 0.5 0.5
305 1 0.5 0.5 0.5
306 1 0.5 0.5 0.5
307 1 0.5 0.5 0.5
308 1 0.5 0.5 0.5
309 1 0.5 0.5 0.5
310 1 0.5 0.5 0.5
311 1 0.5 0.5 0.5
312 1 0.5 0.5 0.5
313 1 0.5 0.5 0.5
314 1 0.5 0.5 0.5
315 1 0.5 0.5 0.5
316 1 0.5 0.5 0.5
317 1 0.5 0.5 0.5
318 1 0.5 0.5 0.5
319 1 0.5 0.5 0.5
320 1 0.5 0.5 0.5
321 1 0.5 0.5 0.5
322 1 0.5 0.5 0.5
323 1 0.5 0.5 0.5
324 1 0.5 0.5 0.5
325 1 0.5 0.5 0.5
326 1 0.5 0.5 0.5
327 1 0.5 0.5 0.5
328 1 0.5 0.5 0.5
329 1 0.5 0.5 0.5
330 1 0.5 0.5 0.5
331 1 0.5 0.5 0.5
332 1 0.5 0.5 0.5
333 1 0.5 0.5 0.5
334 1 0.5 0.5 0.5
335 1 0.5 0.5 0.5
336 1 0.5 0.5 0.5
337 1 0.5 0.5 0.5
338 1 0.5 0.5 0.5
339 1 0.5 0.5 0.5
340 1 0.5 0.5 0.5
341 1 0.5 0.5 0.5
342 1 0.5 0.5 0.5
343 1 0.5 0.5 0.5
344 1 0.5 0.5 0.5
345 1 0.5 0.5 0.5
346 1 0.5 0.5 0.5
347 1 0.5 0.5 0.5
348 1 0.5 0.5 0.5
349 1 0.5 0.5 0.5
350 1 0.5 0.5 0.5
351 1 0.5 0.5 0.5
352 1 0.5 0.5 0.5
353 1 0.5 0.5 0.5
354 1 0.5 0.5 0.5
355 1 0.5 0.5 0.5
356 1 0.5 0.5 0.5
357 1 0.5 0.5 0.5
358 1 0.5 0.5 0.5
359 1 0.5 0.5 0.5
360 1 0.5 0.5 0.5
361 1 0.5 0.5 0.5
362 1 0.5 0.5 0.5
363 1 0.5 0.5 0.5
364 1 0.5 0.5 0.5
365 1 0.5 0.5 0.5
366 1 0.5 0.5 0.5
367 1 0.5 0.5 0.5
368 1 0.5 0.5 0.5
369 1 0.5 0.5 0.5
370 1 0.5 0.5 0.5
371 1 0.5 0.5 0.5
372 1 0.5 0.5 0.5
373 1 0.5 0.5 0.5
374 1 0.5 0.5 0.5
375 1 0.5 0.5 0.5
376 1 0.5 0.5 0.5
377 1 0.5 0.5 0.5
378 1 0.5 0.5 0.5
379 1 0.5 0.5 0.5
380 1 0.5 0.5 0.5
381 1 0.5 0.5 0.5
382 1 0.5 0.5 0.5
383 1 0.5 0.5 0.5
384 1 0.5 0.5 0.5
385 1 0.5 0.5 0.5
386 1 0.5 0.5 0.5
387 1 0.5 0.5 0.5
388 1 0.5 0.5 0.5
389 1 0.5 0.5 0.5
390 1 0.5 0.5 0.5
391 1 0.5 0.5 0.5
392 1 0.5 0.5 0.5
393 1 0.5 0.5 0.5
394 1 0.5 0.5 0.5
395 1 0.5 0.5 0.5
396 1 0.5 0.5 0.5
397 1 0.5 0.5 0.5
398 1 0.5 0.5 0.5
399 1 0.5 0.5 0.5
400 1 0.5 0.5 0.5
401 1 0.5 0.5 0.5
402 1 0.5 0.5 0.5
403 1 0.5 0.5 0.5
404 1 0.5 0.5 0.5
405 1 0.5 0.5 0.5
406 1 0.5 0.5 0.5
407 1 0.5 0.5 0.5
408 1 0.5 0.5 0.5
409 1 0.5 0.5 0.5
410 1 0.5 0.5 0.5
411 1 0.5 0.5 0.5
412 1 0.5 0.5 0.5
413 1 0.5 0.5 0.5
414 1 0.5 0.5 0.5
415 1 0.5 0.5 0.5
416 1 0.5 0.5 0.5
417 1 0.5 0.5 0.5
418 1 0.5 0.5 0.5
419 1 0.5 0.5 0.5
420 1 0.5 0.5 0.5
421 1 0.5 0.5 0.5
422 1 0.5 0.5 0.5
423 1 0.5 0.5 0.5
424 1 0.5 0.5 0.5
425 1 0.5 0.5 0.5
426 1 0.5 0.5 0.5
427 1 0.5 0.5 0.5
428 1 0.5 0.5 0.5
429 1 0.5 0.5 0.5
430 1 0.5 0.5 0.5
431 1 0.5 0.5 0.5
432 1 0.5 0.5 0.5
433 1 0.5 0.5 0.5
434 1 0.5 0.5 0.5
435 1 0.5 0.5 0.5
436 1 0.5 0.5 0.5
437 1 0.5 0.5 0.5
438 1 0.5 0.5 0.5
439 1 0.5 0.5 0.5
440 1 0.5 0.5 0.5
441 1 0.5 0.5 0.5
442 1 0.5 0.5 0.5
443 1 0.5 0.5 0.5
444 1 0.5 0.5 0.5
445 1 0.5 0.5 0.5
446 1 0.5 0.5 0.5
447 1 0.5 0.5 0.5
448 1 0.5 0.5 0.5
449 1 0.5 0.5 0.5
450 1 0.5 0.5 0.5
451 1 0.5 0.5 0.5
452 1 0.5 0.5 0.5
453 1 0.5 0.5 0.5
454 1 0.5 0.5 0.5
455 1 0.5 0.5 0.5
456 1 0.5 0.5 0.5
457 1 0.5 0.5 0.5
458 1 0.5 0.5 0.5
459 1 0.5 0.5 0.5
460 1 0.5 0.5 0.5
461 1 0.5 0.5 0.5
462 1 0.5 0.5 0.5
463 1 0.5 0.5 0.5
464 1 0.5 0.5 0.5
465 1 0.5 0.5 0.5
466 1 0.5 0.5 0.5
467 1 0.5 0.5 0.5
468 1 0.5 0.5 0.5
469 1 0.5 0.5 0.5
470 1 0.5 0.5 0.5
471 1 0.5 0.5 0.5
472 1 0.5 0.5 0.5
473 1 0.5 0.5 0.5
474 1 0.5 0.5 0.5
475 1 0.5 0.5 0.5
476 1 0.5 0.5 0.5
477 1 0.5 0.5 0.5
478 1 0.5 0.5 0.5
479 1 0.5 0.5 0.5
480 1 0.5 0.5 0.5
481 1 0.5 0.5 0.5
482 1 0.5 0.5 0.5
483 1 0.5 0.5 0.5
484 1 0.5 0.5 0.5
485 1 0.5 0.5 0.5
486 1 0.5 0.5 0.5
487 1 0.5 0.5 0.5
488 1 0.5 0.5 0.5
489 1 0.5 0.5 0.5
490 1 0.5 0.5 0.5
491 1 0.5 0.5 0.5
492 1 0.5 0.5 0.5
493 1 0.5 0.5 0.5
494 1 0.5 0.5 0.5
495 1 0.5 0.5 0.5
496 1 0.5 0.5 0.5
497 1 0.5 0.5 0.5
498 1 0.5 0.5 0.5
499 1 0.5 0.5 0.5
500 1 0.5 0.5 0.5
501 1 0.5 0.5 0.5
502 1 0.5 0.5 0.5
503 1 0.5 0.5 0.5
504 1 0.5 0.5 0.5
505 1 0.5 0.5 0.5
506 1 0.5 0.5 0.5
507 1 0.5 0.5 0.5
508 1 0.5 0.5 0.5
509 1 0.5 0.5 0.5
510 1 0.5 0.5 0.5
511 1 0.5 0.5 0.5
512 1 0.5 0.5 0.5
513 1 0.5 0.5 0.5
514 1 0.5 0.5 0.5
515 1 0.5 0.5 0.5
516 1 0.5 0.5 0.5
517 1 0.5 0.5 0.5
518 1 0.5 0.5 0.5
519 1 0.5 0.5 0.5
520 1 0.5 0.5 0.5
521 1 0.5 0.5 0.5
522 1 0.5 0.5 0.5
523 1 0.5 0.5 0.5
524 1 0.5 0.5 0.5
525 1 0.5 0.5 0.5
526 1 0.5 0.5 0.5
527 1 0.5 0.5 0.5
528 1 0.5 0.5 0.5
529 1 0.5 0.5 0.5
530 1 0.5 0.5 0.5
531 1 0.5 0.5 0.5
532 1 0.5 0.5 0.5
533 1 0.5 0.5 0.5
534 1 0.5 0.5 0.5
535 1 0.5 0.5 0.5
536 1 0.5 0.5 0.5
537 1 0.5 0.5 0.5
538 1 0.5 0.5 0.5
539 1 0.5 0.5 0.5
540 1 0.5 0.5 0.5
541 1 0.5 0.5 0.5
542 1 0.5 0.5 0.5