ITEM: TIMESTEP
500000
ITEM: NUMBER OF ATOMS
2424
ITEM: BOX BOUNDS pp pp pp
-50 50
-50 50
-50 50
ITEM: ATOMS id type xs ys zs
1460 2 0.480246 0.461243 0.461481
1278 2 0.499244 0.458904 0.459826
2384 2 0.49207 0.458521 0.460797
1474 2 0.486097 0.459487 0.461097
2386 2 0.505693 0.459945 0.459534
1444 2 0.512355 0.460765 0.45998
1453 2 0.472839 0.478015 0.456352
1462 2 0.474811 0.472536 0.45763
1452 2 0.479603 0.477051 0.454316
1463 2 0.468163 0.474178 0.459885
1469 2 0.477137 0.46668 0.459284
1470 2 0.470573 0.468143 0.461278
1464 2 0.462957 0.478019 0.461081
1450 2 0.480871 0.471368 0.455998
1451 2 0.48267 0.46505 0.45829
1286 2 0.488955 0.463876 0.457884
1459 2 0.495345 0.463063 0.457605
2312 2 0.48526 0.47536 0.453314
1461 2 0.486734 0.469533 0.455492
2313 2 0.498202 0.468459 0.454738
2385 2 0.492632 0.469111 0.454689
1721 2 0.491253 0.475025 0.452577
1729 2 0.497485 0.474266 0.452365
2315 2 0.495584 0.479778 0.450806
1720 2 0.488352 0.480381 0.451304
2316 2 0.50159 0.478626 0.451003
1441 2 0.518442 0.461824 0.460606
2383 2 0.503777 0.469163 0.454395
1449 2 0.501534 0.46401 0.456797
2314 2 0.50543 0.474346 0.452648
1447 2 0.507825 0.464904 0.457005
1448 2 0.510076 0.469626 0.455071
2317 2 0.511668 0.474599 0.453136
1445 2 0.514686 0.465574 0.457492
1446 2 0.516366 0.471665 0.455174
1213 2 0.508308 0.479735 0.451001
1710 2 0.518502 0.47789 0.453492
1442 2 0.520269 0.467712 0.457983
2318 2 0.522164 0.473669 0.456164
1439 2 0.5279 0.475397 0.457313
1443 2 0.525963 0.469069 0.459359
1434 2 0.5339 0.477862 0.459585
2319 2 0.524343 0.48073 0.454556
1433 2 0.531267 0.471133 0.460837
1438 2 0.52374 0.463429 0.461504
1755 2 0.461106 0.490829 0.459171
2309 2 0.461359 0.484602 0.460197
1760 2 0.457095 0.499769 0.461112
1759 2 0.461907 0.496919 0.458108
1454 2 0.467211 0.480946 0.458079
2311 2 0.476963 0.482551 0.45332
2310 2 0.471448 0.484872 0.455116
1750 2 0.466301 0.487592 0.456897
1745 2 0.477416 0.488276 0.452385
1746 2 0.477059 0.494406 0.451559
1751 2 0.472357 0.490755 0.453665
1752 2 0.472146 0.497237 0.45308
1756 2 0.466918 0.493676 0.455729
1738 2 0.48235 0.490993 0.450644
1744 2 0.482521 0.482699 0.451833
1739 2 0.482457 0.497993 0.450019
1737 2 0.486448 0.487095 0.450435
1722 2 0.492588 0.490929 0.448963
1730 2 0.487431 0.494676 0.449227
1731 2 0.494047 0.497268 0.448229
2226 2 0.492713 0.484879 0.449903
2225 2 0.498147 0.486955 0.44914
2228 2 0.49908 0.493478 0.448477
1723 2 0.499766 0.499992 0.448174
1717 2 0.514127 0.481111 0.451586
1719 2 0.502885 0.484277 0.449816
1718 2 0.509391 0.486099 0.449972
1714 2 0.515293 0.487727 0.450603
1712 2 0.510497 0.491978 0.449186
1715 2 0.515954 0.494286 0.449768
1716 2 0.505312 0.496382 0.448236
2227 2 0.504138 0.490602 0.448901
1708 2 0.510999 0.498692 0.448776
1705 2 0.519516 0.484042 0.451899
2320 2 0.530177 0.481731 0.456581
1711 2 0.521324 0.489499 0.451901
1707 2 0.521725 0.496477 0.451169
1693 2 0.53257 0.495057 0.455264
1699 2 0.526413 0.485874 0.45383
1706 2 0.526431 0.492488 0.452957
1692 2 0.530966 0.489378 0.455411
2321 2 0.535261 0.484327 0.458419
1684 2 0.537427 0.491325 0.45798
1700 2 0.526775 0.498556 0.452836
1685 2 0.537223 0.497549 0.457784
2323 2 0.542076 0.492941 0.460963
2322 2 0.540484 0.486324 0.46098
1675 2 0.542421 0.499889 0.460932
1757 2 0.461775 0.503387 0.458026
1753 2 0.466634 0.50072 0.455322
1761 2 0.46241 0.509182 0.458355
1747 2 0.47749 0.501417 0.451436
2029 2 0.463 0.515647 0.459356
1748 2 0.472437 0.503682 0.45313
2218 2 0.467459 0.506512 0.455468
1749 2 0.477477 0.507982 0.451587
1754 2 0.477548 0.513702 0.452478
1758 2 0.472313 0.510561 0.45379
2219 2 0.472568 0.517267 0.454955
2025 2 0.467692 0.513648 0.456308
1732 2 0.488581 0.500986 0.448894
1740 2 0.482987 0.504631 0.450018
1724 2 0.494465 0.503507 0.44829
1741 2 0.483652 0.511042 0.450535
1725 2 0.494192 0.50974 0.448858
1726 2 0.494497 0.516323 0.449908
1733 2 0.488464 0.50679 0.449244
1734 2 0.488869 0.513641 0.450163
1742 2 0.483308 0.516961 0.451768
2229 2 0.499773 0.506509 0.448394
1702 2 0.516583 0.501089 0.449888
2230 2 0.500101 0.512833 0.449085
2232 2 0.500612 0.518573 0.450277
1713 2 0.505355 0.502829 0.44836
1703 2 0.511558 0.505042 0.449154
1709 2 0.505061 0.508849 0.448651
2231 2 0.505831 0.514784 0.449797
1696 2 0.517158 0.507168 0.450483
1698 2 0.512223 0.516803 0.451017
1704 2 0.511085 0.511103 0.449676
1697 2 0.517924 0.513038 0.451184
1690 2 0.517013 0.518983 0.452298
1694 2 0.532673 0.501232 0.455037
1701 2 0.522281 0.503119 0.451401
1689 2 0.52355 0.515896 0.453153
1688 2 0.522879 0.509601 0.451981
1687 2 0.52902 0.511802 0.454336
1695 2 0.527684 0.505368 0.45331
1677 2 0.533199 0.507766 0.455859
1686 2 0.533416 0.514814 0.457023
2241 2 0.537369 0.517411 0.459852
1676 2 0.537527 0.504083 0.457678
2242 2 0.538343 0.510931 0.459076
1679 2 0.528262 0.518966 0.455602
2243 2 0.5431 0.505733 0.461364
2217 2 0.467618 0.520217 0.457831
2220 2 0.478484 0.520622 0.453566
2020 2 0.473152 0.523389 0.456422
2021 2 0.46875 0.526671 0.459777
2015 2 0.474207 0.530848 0.459172
2014 2 0.478648 0.526608 0.455907
2007 2 0.479854 0.533237 0.458248
2030 2 0.464226 0.523685 0.461109
1735 2 0.489369 0.520004 0.451351
1727 2 0.495426 0.522526 0.451482
2221 2 0.483712 0.523537 0.453324
1743 2 0.489397 0.526027 0.453348
1728 2 0.490287 0.532205 0.455736
1736 2 0.495175 0.528932 0.453802
1999 2 0.486244 0.535985 0.458506
2222 2 0.48443 0.529778 0.455727
2223 2 0.496556 0.534524 0.455951
2144 2 0.492737 0.538169 0.458615
1691 2 0.506664 0.521066 0.451249
2233 2 0.500663 0.525062 0.452061
2224 2 0.501277 0.530716 0.454342
1682 2 0.512344 0.522983 0.452593
1220 2 0.503616 0.536491 0.457418
2234 2 0.507701 0.533121 0.455694
1683 2 0.50613 0.52716 0.452986
2236 2 0.511504 0.529332 0.454544
1680 2 0.517271 0.526425 0.454623
2238 2 0.516237 0.531965 0.457022
2146 2 0.511538 0.537014 0.458364
2235 2 0.517719 0.537212 0.459949
2240 2 0.532607 0.521408 0.458555
2237 2 0.521807 0.522375 0.454665
1678 2 0.527053 0.524457 0.456862
1681 2 0.522622 0.528752 0.456975
2239 2 0.523332 0.534297 0.4602
1987 2 0.532288 0.527483 0.460852
1970 2 0.527361 0.530618 0.459683
2124 2 0.498874 0.539977 0.459064
1990 2 0.488049 0.541732 0.461266
2000 2 0.481659 0.538869 0.461018
2145 2 0.505977 0.540751 0.460064
1290 2 0.493496 0.440202 0.480362
1289 2 0.500796 0.439736 0.480512
2392 2 0.514258 0.441544 0.480437
2390 2 0.507712 0.440535 0.480692
1490 2 0.46016 0.459377 0.474991
1492 2 0.463546 0.454516 0.477195
1480 2 0.472245 0.455631 0.469403
1481 2 0.469833 0.46119 0.466248
1485 2 0.468866 0.452932 0.474349
1489 2 0.466165 0.45723 0.471938
2379 2 0.474784 0.450373 0.47341
1468 2 0.475441 0.457999 0.465513
2380 2 0.478619 0.452886 0.468674
1304 2 0.477728 0.445907 0.477543
2378 2 0.472484 0.447428 0.479154
2377 2 0.46712 0.449445 0.480488
1299 2 0.481037 0.448169 0.472606
1467 2 0.481819 0.45607 0.464475
1293 2 0.491095 0.443408 0.475668
1283 2 0.497354 0.442755 0.475583
1303 2 0.484225 0.444434 0.476646
1284 2 0.494019 0.446204 0.47099
2381 2 0.484908 0.451231 0.467942
2382 2 0.488796 0.454678 0.464128
1292 2 0.48755 0.44696 0.471861
1291 2 0.49167 0.450496 0.467118
1276 2 0.496027 0.454181 0.463342
1274 2 0.498322 0.4501 0.466693
1282 2 0.501141 0.446289 0.471004
1285 2 0.502848 0.454442 0.462835
1281 2 0.504352 0.443152 0.475159
2387 2 0.508517 0.455368 0.462923
1277 2 0.504686 0.450571 0.466672
1275 2 0.507842 0.446729 0.470766
2389 2 0.511182 0.44416 0.475374
2388 2 0.511576 0.450993 0.467224
1435 2 0.514638 0.448162 0.471215
1440 2 0.514554 0.456093 0.463706
1436 2 0.518182 0.452679 0.467499
2391 2 0.517818 0.444925 0.47653
1437 2 0.520862 0.457468 0.464508
1429 2 0.520868 0.449218 0.472342
1430 2 0.524174 0.453701 0.469395
1423 2 0.528058 0.451041 0.474327
1424 2 0.530708 0.456294 0.470294
1422 2 0.52431 0.446734 0.477544
1416 2 0.533446 0.453731 0.47533
1431 2 0.526448 0.458978 0.466115
1417 2 0.536518 0.458761 0.472283
1405 2 0.530805 0.448603 0.479956
1425 2 0.532311 0.461354 0.467292
1408 2 0.539413 0.456368 0.477894
1483 2 0.455533 0.46207 0.477992
1487 2 0.457629 0.46493 0.472394
1472 2 0.458966 0.474538 0.465418
1478 2 0.453037 0.467603 0.475236
1479 2 0.45083 0.474186 0.473181
2301 2 0.446934 0.477092 0.476085
1477 2 0.455893 0.471081 0.469881
1473 2 0.454024 0.476972 0.468189
1476 2 0.460343 0.467839 0.467868
2300 2 0.448983 0.470349 0.478758
2302 2 0.449367 0.4807 0.471726
1465 2 0.458102 0.479853 0.463621
1475 2 0.473771 0.463381 0.462634
1486 2 0.46372 0.462174 0.469217
1471 2 0.464031 0.471606 0.463321
1482 2 0.466576 0.465964 0.464667
1432 2 0.52943 0.464734 0.463306
1427 2 0.53688 0.474049 0.462791
1426 2 0.534663 0.46742 0.464582
1418 2 0.538144 0.4642 0.469532
1409 2 0.541645 0.461781 0.474805
1419 2 0.540524 0.470226 0.467293
2329 2 0.546282 0.463767 0.477686
1410 2 0.543538 0.46692 0.471749
1411 2 0.545918 0.473463 0.470078
1420 2 0.542586 0.476538 0.465771
1653 2 0.550954 0.475952 0.474231
2328 2 0.548264 0.470135 0.474972
1412 2 0.547765 0.479469 0.468759
1645 2 0.553077 0.47228 0.479573
1428 2 0.538935 0.48063 0.461738
1646 2 0.555067 0.478225 0.478815
1502 2 0.440506 0.494341 0.479444
1501 2 0.441217 0.487097 0.480326
2308 2 0.456194 0.493514 0.462084
1455 2 0.456516 0.487438 0.462719
2306 2 0.443425 0.49625 0.474878
2303 2 0.444544 0.483535 0.476072
1466 2 0.453169 0.483663 0.466392
1456 2 0.452009 0.490069 0.466103
1457 2 0.447501 0.493426 0.470055
1458 2 0.448655 0.48656 0.470261
2304 2 0.444366 0.489553 0.474758
2307 2 0.451463 0.497112 0.465462
1762 2 0.447652 0.499485 0.469329
2327 2 0.552962 0.482004 0.47349
1421 2 0.544758 0.482819 0.464914
1413 2 0.549363 0.485691 0.468451
2324 2 0.545735 0.488767 0.464538
2325 2 0.550319 0.492417 0.467827
2326 2 0.553436 0.489207 0.471839
2246 2 0.555118 0.495214 0.4728
1223 2 0.546236 0.49539 0.463749
1637 2 0.556299 0.485581 0.477073
2245 2 0.551616 0.498219 0.468561
1638 2 0.557885 0.492081 0.477541
2247 2 0.55913 0.498131 0.478213
2294 2 0.440669 0.501278 0.478887
2214 2 0.442001 0.506721 0.477163
1775 2 0.442126 0.512231 0.478629
1763 2 0.456643 0.50661 0.461827
2213 2 0.457952 0.512492 0.461689
1224 2 0.444267 0.502047 0.47345
2216 2 0.448562 0.505923 0.468699
1764 2 0.452503 0.503026 0.464802
2215 2 0.452956 0.50977 0.46513
2034 2 0.449315 0.513171 0.469154
1767 2 0.445592 0.509568 0.472933
2305 2 0.454296 0.516278 0.465439
2212 2 0.446477 0.516502 0.473964
1768 2 0.443422 0.518728 0.479295
1944 2 0.555633 0.501745 0.473344
2244 2 0.547329 0.50182 0.464769
1954 2 0.54293 0.51119 0.462331
1945 2 0.547781 0.508123 0.465665
1946 2 0.552447 0.511065 0.470665
2155 2 0.552123 0.50455 0.469239
2157 2 0.556282 0.50755 0.474838
1955 2 0.547801 0.514794 0.466897
1947 2 0.55611 0.514569 0.476542
1956 2 0.551698 0.51702 0.47192
1962 2 0.5427 0.517008 0.463395
2156 2 0.559541 0.503782 0.479603
2158 2 0.559456 0.510131 0.480432
2031 2 0.450487 0.519817 0.470679
2033 2 0.459275 0.51961 0.462559
1766 2 0.455363 0.522203 0.466767
2022 2 0.4568 0.529469 0.469183
2024 2 0.456348 0.534256 0.473053
2027 2 0.45256 0.525594 0.471394
2028 2 0.452408 0.535281 0.479077
2211 2 0.451884 0.530032 0.474635
2032 2 0.459855 0.525876 0.464803
1769 2 0.447632 0.523188 0.475627
2210 2 0.448193 0.529914 0.479885
2018 2 0.46116 0.537825 0.471457
2023 2 0.461679 0.532976 0.467368
2008 2 0.475505 0.536991 0.462153
2009 2 0.470386 0.5333 0.462263
2026 2 0.465379 0.530179 0.463251
2016 2 0.466252 0.536645 0.466717
1975 2 0.537132 0.523796 0.462073
1976 2 0.534346 0.53196 0.464079
1980 2 0.528955 0.535678 0.463236
1972 2 0.534876 0.536736 0.467482
1977 2 0.538947 0.528894 0.465586
1963 2 0.546944 0.520727 0.468128
1948 2 0.554548 0.520348 0.476845
1969 2 0.54229 0.523009 0.465154
1964 2 0.543955 0.528355 0.469278
1957 2 0.549728 0.523412 0.47261
1958 2 0.552334 0.526439 0.477506
1971 2 0.550041 0.532225 0.479467
1965 2 0.547636 0.529437 0.473942
1973 2 0.540682 0.5332 0.469488
1959 2 0.544989 0.534483 0.474649
1966 2 0.546502 0.537305 0.479624
1974 2 0.53955 0.538417 0.472725
2019 2 0.456961 0.538922 0.476669
2013 2 0.459235 0.543986 0.480045
2010 2 0.471448 0.539654 0.465905
2012 2 0.463031 0.542768 0.474601
2017 2 0.46683 0.541159 0.470002
2001 2 0.477543 0.541928 0.464831
1995 2 0.47464 0.549607 0.473701
2002 2 0.478751 0.547338 0.468798
2003 2 0.472372 0.545079 0.469879
2004 2 0.470875 0.551011 0.478056
2011 2 0.468078 0.54655 0.474319
1996 2 0.476308 0.553909 0.478159
2005 2 0.463932 0.547566 0.479627
1994 2 0.480705 0.55177 0.472712
2143 2 0.495212 0.543718 0.461976
2139 2 0.482382 0.555884 0.477333
1992 2 0.483694 0.544613 0.464652
1993 2 0.484591 0.549757 0.468748
2140 2 0.487473 0.553982 0.473231
1991 2 0.489619 0.546684 0.464905
2114 2 0.49378 0.555749 0.473758
2118 2 0.497674 0.552727 0.469795
2141 2 0.491008 0.550848 0.468698
2142 2 0.496861 0.548517 0.465622
2113 2 0.500452 0.556664 0.474772
2123 2 0.501352 0.545026 0.462567
2147 2 0.512688 0.542336 0.461765
1989 2 0.518501 0.542807 0.463784
2121 2 0.503187 0.549283 0.466379
2117 2 0.504389 0.553721 0.471104
2122 2 0.507889 0.546092 0.464023
2120 2 0.509421 0.550756 0.468594
2111 2 0.510656 0.554943 0.473497
2119 2 0.514325 0.546959 0.46602
2116 2 0.515546 0.552696 0.472629
2105 2 0.514762 0.556711 0.477691
2112 2 0.50626 0.557559 0.476624
1988 2 0.518559 0.549012 0.469398
2115 2 0.520563 0.554018 0.476152
1984 2 0.523647 0.539273 0.463061
1981 2 0.523161 0.544382 0.467155
1982 2 0.528962 0.540612 0.466637
2110 2 0.526302 0.551056 0.476204
2148 2 0.532194 0.547806 0.475659
1985 2 0.523599 0.549636 0.471956
1986 2 0.528363 0.545972 0.471321
1983 2 0.536975 0.543511 0.475344
1978 2 0.533826 0.541267 0.470478
1968 2 0.537426 0.547089 0.480483
1967 2 0.54161 0.541343 0.478118
2109 2 0.488968 0.557896 0.477835
2108 2 0.495472 0.559642 0.479606
1305 2 0.477519 0.439588 0.495351
1306 2 0.48015 0.439735 0.488963
1310 2 0.472162 0.441424 0.495654
1302 2 0.480731 0.442101 0.482399
1298 2 0.487066 0.440777 0.481416
1297 2 0.489415 0.436653 0.492259
1301 2 0.48567 0.438654 0.487407
2408 2 0.483602 0.437788 0.49445
1296 2 0.49124 0.438037 0.486117
1294 2 0.495208 0.435637 0.492518
1295 2 0.497222 0.437882 0.485189
2406 2 0.493552 0.435633 0.49841
1300 2 0.487801 0.436191 0.499324
2404 2 0.500276 0.435149 0.498295
1273 2 0.512035 0.43874 0.486162
1287 2 0.507766 0.436833 0.490086
1288 2 0.500899 0.436254 0.491049
2402 2 0.506606 0.435712 0.496124
1280 2 0.50424 0.437819 0.485589
2395 2 0.517938 0.440106 0.48587
2400 2 0.512897 0.43701 0.493248
2396 2 0.518011 0.437656 0.497374
1271 2 0.51946 0.438976 0.491634
2335 2 0.525601 0.440899 0.49402
1272 2 0.52423 0.441501 0.488072
2397 2 0.527545 0.441179 0.499583
1493 2 0.458485 0.455893 0.481445
2296 2 0.458259 0.452924 0.487154
2374 2 0.454111 0.456224 0.489598
1494 2 0.458657 0.450573 0.493121
2424 2 0.454163 0.453934 0.496248
2297 2 0.450207 0.459123 0.493626
1488 2 0.453763 0.459266 0.483877
1324 2 0.458363 0.450026 0.499352
2295 2 0.450082 0.458466 0.499759
1307 2 0.473814 0.442444 0.489587
2375 2 0.462444 0.451185 0.483031
1314 2 0.463148 0.446804 0.496133
2376 2 0.463206 0.448317 0.489438
1308 2 0.474759 0.4437 0.48357
1313 2 0.467751 0.444523 0.491664
1311 2 0.468967 0.446047 0.485267
1312 2 0.468056 0.443656 0.49956
1279 2 0.521309 0.443037 0.481472
1415 2 0.536093 0.451636 0.481153
1674 2 0.531813 0.443575 0.496011
2334 2 0.529698 0.443654 0.489952
2394 2 0.533649 0.447124 0.486089
2393 2 0.527584 0.445093 0.483565
2333 2 0.535819 0.446476 0.492283
2336 2 0.536495 0.446326 0.499644
1414 2 0.539059 0.450399 0.48778
2330 2 0.544818 0.45941 0.481351
1673 2 0.540301 0.449597 0.495367
1406 2 0.543469 0.45311 0.49096
1407 2 0.542238 0.454681 0.484126
2332 2 0.547494 0.45617 0.495539
2331 2 0.546653 0.457419 0.488016
1667 2 0.551364 0.460218 0.498757
1672 2 0.54453 0.452575 0.498432
1668 2 0.550589 0.460746 0.492173
1507 2 0.440082 0.476539 0.49273
1499 2 0.441103 0.47854 0.486955
1514 2 0.440584 0.473954 0.499527
1515 2 0.438207 0.4804 0.498401
1491 2 0.449619 0.461962 0.487703
1506 2 0.443162 0.469402 0.495019
1484 2 0.450589 0.464623 0.481684
1497 2 0.445989 0.465962 0.490504
2298 2 0.446464 0.468566 0.484602
1498 2 0.443205 0.472126 0.488768
2299 2 0.444457 0.474711 0.481802
1496 2 0.446683 0.463325 0.49594
1500 2 0.442667 0.480618 0.481032
1659 2 0.550667 0.466941 0.481436
1664 2 0.549631 0.462062 0.485551
1663 2 0.554095 0.464984 0.494214
1658 2 0.553676 0.466715 0.488334
1651 2 0.555206 0.471881 0.484478
1636 2 0.55716 0.471722 0.490653
1657 2 0.557742 0.470115 0.496414
1652 2 0.558083 0.476807 0.486344
1662 2 0.560103 0.475697 0.498238
1641 2 0.560364 0.477645 0.492947
1503 2 0.438463 0.498876 0.483674
1508 2 0.438198 0.482617 0.49204
1509 2 0.43938 0.484965 0.486041
1516 2 0.437025 0.489423 0.490691
1510 2 0.438581 0.491147 0.484931
1511 2 0.436856 0.495342 0.488319
1517 2 0.435539 0.493749 0.495052
1528 2 0.436356 0.487546 0.496802
1518 2 0.435735 0.499761 0.493437
1524 2 0.434966 0.498005 0.499766
1643 2 0.56219 0.48125 0.498992
1644 2 0.557782 0.481607 0.481962
1635 2 0.560819 0.483193 0.487662
2250 2 0.559643 0.487653 0.48241
2248 2 0.561236 0.493336 0.483242
2249 2 0.562533 0.489273 0.48867
1634 2 0.562361 0.484082 0.493758
1633 2 0.563569 0.489921 0.494847
1930 2 0.563433 0.4962 0.489572
1939 2 0.564501 0.497651 0.495487
1942 2 0.561798 0.499796 0.48452
1935 2 0.56449 0.493225 0.499993
1774 2 0.440082 0.514636 0.483919
1765 2 0.439079 0.507226 0.48323
2293 2 0.437041 0.50317 0.487977
2292 2 0.43749 0.510314 0.488612
1783 2 0.438791 0.516572 0.489307
1789 2 0.435831 0.505871 0.493825
1795 2 0.436451 0.511391 0.496122
1790 2 0.437885 0.517281 0.495055
2291 2 0.435477 0.504819 0.49948
2159 2 0.558454 0.516459 0.481499
1941 2 0.561806 0.506409 0.484798
1943 2 0.563845 0.502391 0.489685
1940 2 0.564442 0.50379 0.495848
1937 2 0.563229 0.509004 0.490883
1932 2 0.563808 0.511036 0.497259
1938 2 0.561321 0.51308 0.486482
1933 2 0.562339 0.516184 0.492915
1927 2 0.562281 0.518021 0.498113
1934 2 0.560078 0.519044 0.487151
1782 2 0.44175 0.52123 0.484784
1776 2 0.441554 0.524638 0.489219
1784 2 0.440002 0.523174 0.494895
1791 2 0.441548 0.528195 0.499485
1785 2 0.442722 0.529511 0.492831
1777 2 0.444877 0.524935 0.480901
1778 2 0.445159 0.529712 0.486036
1787 2 0.44475 0.533758 0.49771
1779 2 0.446465 0.534733 0.49113
1770 2 0.448976 0.53532 0.484928
1949 2 0.556097 0.522507 0.481512
1950 2 0.554575 0.528467 0.483464
2161 2 0.555209 0.532115 0.489593
1923 2 0.554535 0.534872 0.495776
1951 2 0.551537 0.53444 0.48514
2162 2 0.551087 0.538218 0.490467
1929 2 0.557655 0.528636 0.49334
2160 2 0.558 0.524877 0.487961
1928 2 0.560188 0.522722 0.493386
1922 2 0.560063 0.524655 0.499352
1781 2 0.448448 0.538959 0.495732
1771 2 0.450604 0.540043 0.488948
2209 2 0.453117 0.539703 0.483089
2208 2 0.455672 0.544137 0.486208
2207 2 0.457908 0.547987 0.490264
1780 2 0.453278 0.544341 0.493255
1772 2 0.461052 0.551434 0.49427
2006 2 0.461065 0.548637 0.484618
2204 2 0.456899 0.548535 0.498004
2202 2 0.451209 0.54286 0.499337
2206 2 0.46473 0.552492 0.489225
1997 2 0.472523 0.554978 0.483371
1998 2 0.466694 0.551715 0.483555
1773 2 0.466465 0.555257 0.495089
2088 2 0.469661 0.555807 0.489106
2137 2 0.478878 0.557472 0.482876
2150 2 0.526505 0.554409 0.481289
2104 2 0.521215 0.55683 0.481582
2149 2 0.532315 0.550938 0.481139
1979 2 0.534738 0.552552 0.48709
2081 2 0.532859 0.555523 0.49293
2097 2 0.529002 0.555687 0.487433
2152 2 0.535636 0.554256 0.498611
1961 2 0.538425 0.551457 0.492187
2151 2 0.539824 0.548136 0.486019
1960 2 0.548086 0.539972 0.485861
1908 2 0.550384 0.54059 0.496445
2164 2 0.543228 0.547167 0.491266
1952 2 0.543309 0.543647 0.483864
2163 2 0.547293 0.543077 0.491053
1953 2 0.540901 0.550201 0.497498
1221 2 0.545858 0.545561 0.496675
2136 2 0.472329 0.558534 0.495376
2035 2 0.475236 0.558512 0.488792
2044 2 0.477771 0.560623 0.49437
2096 2 0.481666 0.560369 0.488593
2138 2 0.485351 0.559413 0.483059
2102 2 0.491105 0.561008 0.484294
2087 2 0.483577 0.56228 0.494849
2103 2 0.48778 0.562412 0.489346
2095 2 0.489959 0.563904 0.495345
2086 2 0.497367 0.564808 0.497001
2094 2 0.494152 0.563767 0.490606
2101 2 0.497598 0.562187 0.485591
2107 2 0.501543 0.560296 0.480945
2106 2 0.508534 0.56012 0.481371
2093 2 0.500984 0.563958 0.491505
2099 2 0.515004 0.559215 0.482959
2085 2 0.50427 0.564694 0.498442
2100 2 0.504418 0.562459 0.486449
2084 2 0.50778 0.563824 0.492591
2083 2 0.514163 0.56306 0.494009
2092 2 0.510833 0.561885 0.487703
2129 2 0.510486 0.563984 0.49865
2091 2 0.51771 0.560683 0.487943
2082 2 0.517623 0.562245 0.499256
2098 2 0.523744 0.558158 0.48712
2153 2 0.529667 0.557834 0.498688
2080 2 0.526876 0.558367 0.492907
2090 2 0.520996 0.560929 0.494084
2126 2 0.524381 0.560006 0.49944
1309 2 0.474698 0.44022 0.501983
2410 2 0.48039 0.438723 0.507355
1243 2 0.478188 0.441205 0.513357
2412 2 0.474332 0.441213 0.507656
1242 2 0.48126 0.437806 0.500807
1244 2 0.484638 0.438995 0.512464
1249 2 0.486175 0.436998 0.506089
1250 2 0.490683 0.437453 0.511301
1255 2 0.492653 0.435653 0.505242
1256 2 0.497094 0.43658 0.510368
1251 2 0.494377 0.438524 0.516153
1245 2 0.488112 0.440168 0.518176
1260 2 0.49929 0.435342 0.50454
1236 2 0.481683 0.441985 0.517905
2398 2 0.512167 0.436077 0.500232
1257 2 0.501056 0.438106 0.515597
1264 2 0.505687 0.435534 0.502656
1261 2 0.504136 0.436402 0.509186
1262 2 0.507435 0.437932 0.513947
1267 2 0.510061 0.436578 0.507074
1265 2 0.513675 0.438211 0.511507
1269 2 0.516344 0.437506 0.504443
1263 2 0.512199 0.440182 0.517683
1266 2 0.518176 0.440817 0.515637
1268 2 0.5198 0.43915 0.509016
1270 2 0.522176 0.439216 0.501992
1404 2 0.526135 0.44121 0.506844
2399 2 0.524143 0.441761 0.512899
2372 2 0.452672 0.458824 0.513299
2373 2 0.451256 0.457939 0.50638
1332 2 0.454884 0.453499 0.503314
1225 2 0.459212 0.450009 0.506468
1339 2 0.455784 0.454183 0.510123
1316 2 0.457522 0.45528 0.51657
2423 2 0.460733 0.450686 0.51297
1218 2 0.463308 0.446668 0.503149
1234 2 0.471727 0.443351 0.511935
1315 2 0.469235 0.443476 0.505969
2414 2 0.46457 0.446843 0.509277
2422 2 0.467356 0.447019 0.514543
1226 2 0.474118 0.444412 0.517626
1325 2 0.46372 0.451083 0.518607
1217 2 0.531746 0.443528 0.503479
1402 2 0.530456 0.444169 0.510428
1400 2 0.53429 0.447621 0.513912
1403 2 0.536044 0.446751 0.506919
1399 2 0.528297 0.4455 0.516584
1397 2 0.537823 0.451736 0.516809
2401 2 0.522231 0.443879 0.51877
1401 2 0.539896 0.450621 0.510671
2337 2 0.541369 0.449973 0.503381
1671 2 0.548012 0.456422 0.503294
2338 2 0.544235 0.453188 0.507326
1398 2 0.543193 0.45511 0.514105
2339 2 0.548021 0.458119 0.510341
1394 2 0.546483 0.459717 0.516771
1669 2 0.551879 0.461419 0.504828
1522 2 0.438856 0.478374 0.503807
2368 2 0.440185 0.477189 0.509178
1521 2 0.442145 0.471306 0.505155
1512 2 0.448855 0.462709 0.51051
1495 2 0.447168 0.462476 0.503536
1505 2 0.443982 0.467073 0.500827
1526 2 0.442587 0.476923 0.515164
1513 2 0.443594 0.471501 0.511822
1519 2 0.446915 0.46709 0.514369
1504 2 0.445042 0.466746 0.507957
1317 2 0.451524 0.46318 0.51758
1520 2 0.445938 0.472309 0.518259
1670 2 0.555078 0.465756 0.500927
1665 2 0.551129 0.463243 0.51249
1660 2 0.55421 0.468585 0.513883
1666 2 0.554574 0.466487 0.508073
2340 2 0.549206 0.465055 0.519097
1654 2 0.555951 0.474065 0.516107
1655 2 0.557499 0.472298 0.509283
1661 2 0.558164 0.471304 0.503299
1656 2 0.560481 0.476947 0.505033
1650 2 0.559353 0.478202 0.511766
1647 2 0.557809 0.480107 0.517283
1534 2 0.440347 0.48338 0.515349
1523 2 0.435699 0.491869 0.502094
1529 2 0.435928 0.496866 0.506536
1525 2 0.436748 0.489077 0.507242
1530 2 0.438425 0.483222 0.509393
1527 2 0.43697 0.484456 0.503041
1533 2 0.437243 0.493925 0.511799
1531 2 0.438737 0.48883 0.514815
1535 2 0.438607 0.498781 0.517432
1532 2 0.439876 0.492845 0.518504
1649 2 0.563693 0.486644 0.501232
1642 2 0.563467 0.48976 0.506225
1648 2 0.562225 0.482935 0.505793
1632 2 0.562447 0.490735 0.512237
1640 2 0.561246 0.48402 0.511594
1630 2 0.559986 0.487094 0.516909
1924 2 0.563962 0.49542 0.507757
2251 2 0.562852 0.498367 0.513265
1631 2 0.560938 0.494088 0.517828
1931 2 0.56474 0.499773 0.502288
2289 2 0.436757 0.501085 0.511517
1800 2 0.436851 0.515716 0.501668
1536 2 0.438515 0.505303 0.516002
2290 2 0.435359 0.502933 0.505032
2287 2 0.436729 0.507067 0.510146
2288 2 0.43606 0.50955 0.503552
1804 2 0.437591 0.513988 0.508444
1807 2 0.438766 0.511492 0.514516
1805 2 0.439664 0.517619 0.513003
1 1 0.5 0.5 0.5
2 1 0.5 0.5 0.5
3 1 0.5 0.5 0.5
4 1 0.5 0.5 0.5
5 1 0.5 0.5 0.5
6 1 0.5 0.5 0.5
7 1 0.5 0.5 0.5
8 1 0.5 0.5 0.5
9 1 0.5 0.5 0.5
10 1 0.5 0.5 0.5
11 1 0.5 0.5 0.5
12 1 0.5 0.5 0.5
13 1 0.5 0.5 0.5
14 1 0.5 0.5 0.5
15 1 0.5 0.5 0.5
16 1 0.5 0.5 0.5
17 1 0.5 0.5 0.5
18 1 0.5 0.5 0.5
19 1 0.5 0.5 0.5
20 1 0.5 0.5 0.5
21 1 0.5 0.5 0.5
22 1 0.5 0.5 0.5
23 1 0.5 0.5 0.5
24 1 0.5 0.5 0.5
25 1 0.5 0.5 0.5
26 1 0.5 0.5 0.5
27 1 0.5 0.5 0.5
28 1 0.5 0.5 0.5
29 1 0.5 0.5 0.5
30 1 0.5 0.5 0.5
31 1 0.5 0.5 0.5
32 1 0.5 0.5 0.5
33 1 0.5 0.5 0.5
34 1 0.5 0.5 0.5
35 1 0.5 0.5 0.5
36 1 0.5 0.5 0.5
37 1 0.5 0.5 0.5
38 1 0.5 0.5 0.5
39 1 0.5 0.5 0.5
40 1 0.5 0.5 0.5
41 1 0.5 0.5 0.5
42 1 0.5 0.5 0.5
43 1 0.5 0.5 0.5
44 1 0.5 0.5 0.5
45 1 0.5 0.5 0.5
46 1 0.5 0.5 0.5
47 1 0.5 0.5 0.5
48 1 0.5 0.5 0.5
49 1 0.5 0.5 0.5
50 1 0.5 0.5 0.5
51 1 0.5 0.5 0.5
52 1 0.5 0.5 0.5
53 1 0.5 0.5 0.5
54 1 0.5 0.5 0.5
55 1 0.5 0.5 0.5
56 1 0.5 0.5 0.5
57 1 0.5 0.5 0.5
58 1 0.5 0.5 0.5
59 1 0.5 0.5 0.5
60 1 0.5 0.5 0.5
61 1 0.5 0.5 0.5
62 1 0.5 0.5 0.5
63 1 0.5 0.5 0.5
64 1 0.5 0.5 0.5
65 1 0.5 0.5 0.5
66 1 0.5 0.5 0.5
67 1 0.5 0.5 0.5
68 1 0.5 0.5 0.5
69 1 0.5 0.5 0.5
70 1 0.5 0.5 0.5
71 1 0.5 0.5 0.5
72 1 0.5 0.5 0.5
73 1 0.5 0.5 0.5
74 1 0.5 0.5 0.5
75 1 0.5 0.5 0.5
76 1 0.5 0.5 0.5
77 1 0.5 0.5 0.5
78 1 0.5 0.5 0.5
79 1 0.5 0.5 0.5
80 1 0.5 0.5 0.5
81 1 0.5 0.5 0.5
82 1 0.5 0.5 0.5
83 1 0.5 0.5 0.5
84 1 0.5 0.5 0.5
85 1 0.5 0.5 0.5
86 1 0.5 0.5 0.5
87 1 0.5 0.5 0.5
88 1 0.5 0.5 0.5
89 1 0.5 0.5 0.5
90 1 0.5 0.5 0.5
91 1 0.5 0.5 0.5
92 1 0.5 0.5 0.5
93 1 0.5 0.5 0.5
94 1 0.5 0.5 0.5
95 1 0.5 0.5 0.5
96 1 0.5 0.5 0.5
97 1 0.5 0.5 0.5
98 1 0.5 0.5 0.5
99 1 0.5 0.5 0.5
100 1 0.5 0.5 0.5
101 1 0.5 0.5 0.5
102 1 0.5 0.5 0.5
103 1 0.5 0.5 0.5
104 1 0.5 0.5 0.5
105 1 0.5 0.5 0.5
106 1 0.5 0.5 0.5
107 1 0.5 0.5 0.5
108 1 0.5 0.5 0.5
109 1 0.5 0.5 0.5
110 1 0.5 0.5 0.5
111 1 0.5 0.5 0.5
112 1 0.5 0.5 0.5
113 1 0.5 0.5 0.5
114 1 0.5 0.5 0.5
115 1 0.5 0.5 0.5
116 1 0.5 0.5 0.5
117 1 0.5 0.5 0.5
118 1 0.5 0.5 0.5
119 1 0.5 0.5 0.5
120 1 0.5 0.5 0.5
121 1 0.5 0.5 0.5
122 1 0.5 0.5 0.5
123 1 0.5 0.5 0.5
124 1 0.5 0.5 0.5
125 1 0.5 0.5 0.5
126 1 0.5 0.5 0.5
127 1 0.5 0.5 0.5
128 1 0.5 0.5 0.5
129 1 0.5 0.5 0.5
130 1 0.5 0.5 0.5
131 1 0.5 0.5 0.5
132 1 0.5 0.5 0.5
133 1 0.5 0.5 0.5
134 1 0.5 0.5 0.5
135 1 0.5 0.5 0.5
136 1 0.5 0.5 0.5
137 1 0.5 0.5 0.5
138 1 0.5 0.5 0.5
139 1 0.5 0.5 0.5
140 1 0.5 0.5 0.5
141 1 0.5 0.5 0.5
142 1 0.5 0.5 0.5
143 1 0.5 0.5 0.5
144 1 0.5 0.5 0.5
145 1 0.5 0.5 0.5
146 1 0.5 0.5 0.5
147 1 0.5 0.5 0.5
148 1 0.5 0.5 0.5
149 1 0.5 0.5 0.5
150 1 0.5 0.5 0.5
151 1 0.5 0.5 0.5
152 1 0.5 0.5 0.5
153 1 0.5 0.5 0.5
154 1 0.5 0.5 0.5
155 1 0.5 0.5 0.5
156 1 0.5 0.5 0.5
157 1 0.5 0.5 0.5
158 1 0.5 0.5 0.5
159 1 0.5 0.5 0.5
160 1 0.5 0.5 0.5
161 1 0.5 0.5 0.5
162 1 0.5 0.5 0.5
163 1 0.5 0.5 0.5
164 1 0.5 0.5 0.5
165 1 0.5 0.5 0.5
166 1 0.5 0.5 0.5
167 1 0.5 0.5 0.5
168 1 0.5 0.5 0.5
169 1 0.5 0.5 0.5
170 1 0.5 0.5 0.5
171 1 0.5 0.5 0.5
172 1 0.5 0.5 0.5
173 1 0.5 0.5 0.5
174 1 0.5 0.5 0.5
175 1 0.5 0.5 0.5
176 1 0.5 0.5 0.5
177 1 0.5 0.5 0.5
178 1 0.5 0.5 0.5
179 1 0.5 0.5 0.5
180 1 0.5 0.5 0.5
181 1 0.5 0.5 0.5
182 1 0.5 0.5 0.5
183 1 0.5 0.5 0.5
184 1 0.5 0.5 0.5
185 1 0.5 0.5 0.5
186 1 0.5 0.5 0.5
187 1 0.5 0.5 0.5
188 1 0.5 0.5 0.5
189 1 0.5 0.5 0.5
190 1 0.5 0.5 0.5
191 1 0.5 0.5 0.5
192 1 0.5 0.5 0.5
193 1 0.5 0.5 0.5
194 1 0.5 0.5 0.5
195 1 0.5 0.5 0.5
196 1 0.5 0.5 0.5
197 1 0.5 0.5 0.5
198 1 0.5 0.5 0.5
199 1 0.5 0.5 0.5
200 1 0.5 0.5 0.5
201 1 0.5 0.5 0.5
202 1 0.5 0.5 0.5
203 1 0.5 0.5 0.5
204 1 0.5 0.5 0.5
205 1 0.5 0.5 0.5
206 1 0.5 0.5 0.5
207 1 0.5 0.5 0.5
208 1 0.5 0.5 0.5
209 1 0.5 0.5 0.5
210 1 0.5 0.5 0.5
211 1 0.5 0.5 0.5
212 1 0.5 0.5 0.5
213 1 0.5 0.5 0.5
214 1 0.5 0.5 0.5
215 1 0.5 0.5 0.5
216 1 0.5 0.5 0.5
217 1 0.5 0.5 0.5
218 1 0.5 0.5 0.5
219 1 0.5 0.5 0.5
220 1 0.5 0.5 0.5
221 1 0.5 0.5 0.5
222 1 0.5 0.5 0.5
223 1 0.5 0.5 0.5
224 1 0.5 0.5 0.5
225 1 0.5 0.5 0.5
226 1 0.5 0.5 0.5
227 1 0.5 0.5 0.5
228 1 0.5 0.5 0.5
229 1 0.5 0.5 0.5
230 1 0.5 0.5 0.5
231 1 0.5 0.5 0.5
232 1 0.5 0.5 0.5
233 1 0.5 0.5 0.5
234 1 0.5 0.5 0.5
235 1 0.5 0.5 0.5
236 1 0.5 0.5 0.5
237 1 0.5 0.5 0.5
238 1 0.5 0.5 0.5
239 1 0.5 0.5 0.5
240 1 0.5 0.5 0.5
241 1 0.5 0.5 0.5
242 1 0.5 0.5 0.5
243 1 0.5 0.5 0.5
244 1 0.5 0.5 0.5
245 1 0.5 0.5 0.5
246 1 0.5 0.5 0.5
247 1 0.5 0.5 0.5
248 1 0.5 0.5 0.5
249 1 0.5 0.5 0.5
250 1 0.5 0.5 0.5
251 1 0.5 0.5 0.5
252 1 0.5 0.5 0.5
253 1 0.5 0.5 0.5
254 1 0.5 0.5 0.5
255 1 0.5 0.5 0.5
256 1 0.5 0.5 0.5
257 1 0.5 0.5 0.5
258 1 0.5 0.5 0.5
259 1 0.5 0.5 0.5
260 1 0.5 0.5 0.5
261 1 0.5 0.5 0.5
262 1 0.5 0.5 0.5
263 1 0.5 0.5 0.5
264 1 0.5 0.5 0.5
265 1 0.5 0.5 0.5
266 1 0.5 0.5 0.5
267 1 0.5 0.5 0.5
268 1 0.5 0.5 0.5
269 1 0.5 0.5 0.5
270 1 0.5 0.5 0.5
271 1 0.5 0.5 0.5
272 1 0.5 0.5 0.5
273 1 0.5 0.5 0.5
274 1 0.5 0.5 0.5
275 1 0.5 0.5 0.5
276 1 0.5 0.5 0.5
277 1 0.5 0.5 0.5
278 1 0.5 0.5 0.5
279 1 0.5 0.5 0.5
280 1 0.5 0.5 0.5
281 1 0.5 0.5 0.5
282 1 0.5 0.5 0.5
283 1 0.5 0.5 0.5
284 1 0.5 0.5 0.5
285 1 0.5 0.5 0.5
286 1 0.5 0.5 0.5
287 1 0.5 0.5 0.5
288 1 0.5 0.5 0.5
289 1 0.5 0.5 0.5
290 1 0.5 0.5 0.5
291 1 0.5 0.5 0.5
292 1 0.5 0.5 0.5
293 1 0.5 0.5 0.5
294 1 0.5 0.5 0.5
295 1 0.5 0.5 0.5
296 1 0.5 0.5 0.5
297 1 0.5 0.5 0.5
298 1 0.5 0.5 0.5
299 1 0.5 0.5 0.5
300 1 0.5 0.5 0.5
301 1 0.5 0.5 0.5
302 1 0.5 0.5 0.5
303 1 0.5 0.5 0.5
304 1 0.5 0.5 0.5
305 1 0.5 0.5 0.5
306 1 0.5 0.5 0.5
307 1 0.5 0.5 0.5
308 1 0.5 0.5 0.5
309 1 0.5 0.5 0.5
310 1 0.5 0.5 0.5
311 1 0.5 0.5 0.5
312 1 0.5 0.5 0.5
313 1 0.5 0.5 0.5
314 1 0.5 0.5 0.5
315 1 0.5 0.5 0.5
316 1 0.5 0.5 0.5
317 1 0.5 0.5 0.5
318 1 0.5 0.5 0.5
319 1 0.5 0.5 0.5
320 1 0.5 0.5 0.5
321 1 0.5 0.5 0.5
322 1 0.5 0.5 0.5