ITEM: TIMESTEP
500000
ITEM: NUMBER OF ATOMS
2424
ITEM: BOX BOUNDS pp pp pp
-50 50
-50 50
-50 50
ITEM: ATOMS id type xs ys zs
1720 2 0.492946 0.479835 0.459979
2314 2 0.499333 0.479495 0.46
2313 2 0.493965 0.474119 0.461218
1729 2 0.488361 0.475723 0.46121
1450 2 0.500463 0.473688 0.461341
2225 2 0.505621 0.477626 0.460485
2315 2 0.511701 0.476636 0.461028
1752 2 0.475883 0.494198 0.460881
1751 2 0.477669 0.487703 0.460848
1750 2 0.480355 0.482366 0.461204
1737 2 0.486416 0.481148 0.460454
1746 2 0.480994 0.49779 0.45967
1721 2 0.496899 0.48454 0.459147
1745 2 0.482084 0.492485 0.459712
1738 2 0.484147 0.486787 0.459857
1739 2 0.489094 0.491786 0.458835
1730 2 0.490215 0.486119 0.459372
1731 2 0.494866 0.489877 0.458566
1732 2 0.493681 0.496529 0.458323
1740 2 0.486852 0.497326 0.458715
1723 2 0.499514 0.495555 0.458213
1717 2 0.515104 0.481544 0.460733
1722 2 0.501571 0.489576 0.458599
1719 2 0.509245 0.482458 0.459678
2226 2 0.503069 0.483578 0.459272
1718 2 0.513391 0.4873 0.459435
1712 2 0.515854 0.497082 0.459172
1716 2 0.511796 0.492976 0.458986
2227 2 0.507725 0.488554 0.458903
2228 2 0.505421 0.494023 0.458229
1715 2 0.518334 0.491625 0.459743
1713 2 0.509333 0.498524 0.458382
1714 2 0.51999 0.486441 0.460423
1707 2 0.522367 0.496334 0.460212
1711 2 0.524464 0.490752 0.461113
1753 2 0.474482 0.500603 0.460855
1754 2 0.476797 0.511177 0.460965
1747 2 0.478294 0.504822 0.460276
1758 2 0.472479 0.507315 0.461524
1748 2 0.482229 0.515144 0.460506
1724 2 0.497076 0.50223 0.458242
1733 2 0.490608 0.502364 0.45817
1741 2 0.483915 0.502523 0.459164
1742 2 0.483068 0.509081 0.459582
1725 2 0.495281 0.507379 0.458338
1726 2 0.493822 0.513389 0.4589
1734 2 0.489023 0.507728 0.458654
1735 2 0.488152 0.513471 0.459584
2232 2 0.497007 0.518201 0.459345
1727 2 0.491248 0.519022 0.459833
2231 2 0.500336 0.512084 0.458526
2229 2 0.503274 0.500111 0.458059
1708 2 0.514165 0.503174 0.458913
1709 2 0.508148 0.504763 0.458509
2230 2 0.501941 0.506149 0.458198
1690 2 0.509652 0.516339 0.459654
1698 2 0.505777 0.511075 0.458658
1704 2 0.51198 0.508978 0.458944
1691 2 0.50291 0.517878 0.459412
1697 2 0.515259 0.514312 0.459916
1703 2 0.517934 0.507719 0.459635
1681 2 0.518609 0.518941 0.461068
1702 2 0.520038 0.501621 0.459779
1701 2 0.526349 0.500667 0.461215
1696 2 0.523887 0.506519 0.460576
1689 2 0.521195 0.512658 0.460802
1743 2 0.48452 0.520391 0.461005
1728 2 0.495541 0.523961 0.460734
1736 2 0.489536 0.524112 0.461132
2233 2 0.501827 0.523968 0.460561
1682 2 0.513349 0.521692 0.460914
1683 2 0.507204 0.52231 0.460323
1311 2 0.480337 0.441498 0.480094
1300 2 0.493306 0.440166 0.478615
1302 2 0.48686 0.439955 0.479809
2404 2 0.499296 0.439592 0.479112
1284 2 0.515302 0.44206 0.478283
1282 2 0.505621 0.438444 0.480007
1491 2 0.458874 0.456009 0.478318
1463 2 0.461503 0.461005 0.474018
1483 2 0.455381 0.461103 0.477681
1476 2 0.464156 0.455664 0.475832
1487 2 0.467754 0.459801 0.471505
1482 2 0.469187 0.452593 0.475247
1474 2 0.479404 0.455736 0.470175
1485 2 0.475 0.450821 0.474021
2377 2 0.477483 0.446032 0.476725
1470 2 0.472885 0.456997 0.471025
1481 2 0.470752 0.447713 0.478396
1489 2 0.464644 0.450204 0.47957
1303 2 0.497338 0.443943 0.474791
1308 2 0.481275 0.4504 0.472757
1304 2 0.490116 0.444595 0.475329
2380 2 0.482412 0.459724 0.467294
1307 2 0.483703 0.44541 0.475648
1480 2 0.485638 0.454627 0.469008
2378 2 0.487735 0.449556 0.471732
2381 2 0.489191 0.459596 0.466287
2379 2 0.491542 0.453985 0.468796
1293 2 0.49837 0.452919 0.468637
1299 2 0.494025 0.448785 0.471616
2382 2 0.495672 0.45787 0.466512
1290 2 0.509448 0.442813 0.476601
1296 2 0.503595 0.443216 0.475443
1298 2 0.500331 0.448564 0.471588
1286 2 0.501519 0.458231 0.466314
1292 2 0.504543 0.452117 0.469457
1297 2 0.507233 0.447396 0.472684
1283 2 0.513331 0.447553 0.473487
1285 2 0.507386 0.456572 0.467356
1291 2 0.511808 0.452473 0.469995
1436 2 0.515747 0.45737 0.4681
1444 2 0.518166 0.452128 0.471527
1440 2 0.511871 0.460852 0.465864
2387 2 0.519178 0.446936 0.475226
1435 2 0.521603 0.456927 0.469584
1429 2 0.521124 0.442675 0.479226
2389 2 0.523985 0.451423 0.473419
2388 2 0.527558 0.456175 0.471786
1437 2 0.525756 0.447627 0.476879
2391 2 0.533789 0.456383 0.474252
1430 2 0.531079 0.451585 0.475931
2393 2 0.537499 0.453559 0.47815
1431 2 0.537438 0.461103 0.473352
1405 2 0.532597 0.447792 0.480057
1275 2 0.525685 0.461472 0.468461
1441 2 0.530983 0.461443 0.470302
1423 2 0.542398 0.458794 0.477363
1471 2 0.455213 0.472146 0.472202
1478 2 0.453076 0.467368 0.475674
1479 2 0.450327 0.473291 0.475106
1462 2 0.457996 0.465998 0.473247
1455 2 0.45801 0.477526 0.469008
2301 2 0.445011 0.475578 0.478525
2300 2 0.446707 0.46978 0.479594
1472 2 0.453015 0.479236 0.471454
1484 2 0.45012 0.463896 0.479883
1475 2 0.460556 0.471493 0.469576
1473 2 0.448197 0.479966 0.474424
1453 2 0.476351 0.461623 0.468005
1468 2 0.469714 0.464396 0.468788
1469 2 0.464197 0.465846 0.470395
2308 2 0.464288 0.475717 0.466864
1454 2 0.478394 0.471755 0.463934
2312 2 0.467389 0.470427 0.4673
2309 2 0.471381 0.47347 0.464895
1461 2 0.474188 0.467625 0.466154
2311 2 0.475854 0.477289 0.462941
1755 2 0.469889 0.479586 0.464229
1467 2 0.480264 0.465726 0.465396
1744 2 0.482268 0.47697 0.461764
1278 2 0.499234 0.463421 0.464232
1459 2 0.492498 0.463709 0.464361
1452 2 0.484428 0.470214 0.463282
1460 2 0.48572 0.464592 0.464718
2383 2 0.49574 0.468985 0.462437
1451 2 0.489464 0.469546 0.462725
1276 2 0.505723 0.46224 0.464726
1213 2 0.506566 0.472473 0.461686
2384 2 0.502294 0.467355 0.462901
1277 2 0.51495 0.465529 0.46463
2316 2 0.517481 0.475585 0.46207
1449 2 0.513172 0.471528 0.46249
2385 2 0.509208 0.467326 0.463319
1447 2 0.519339 0.46997 0.463954
2386 2 0.519569 0.462291 0.466638
1432 2 0.535748 0.465948 0.46993
1442 2 0.529789 0.46698 0.467546
1445 2 0.523781 0.467157 0.46574
1448 2 0.523627 0.474978 0.463446
1438 2 0.535326 0.471625 0.467973
1443 2 0.534268 0.477525 0.466088
1446 2 0.529089 0.472651 0.465593
2318 2 0.528595 0.479219 0.463744
2317 2 0.521303 0.480349 0.461832
1424 2 0.547608 0.465213 0.477253
1425 2 0.542624 0.4644 0.474154
1439 2 0.540454 0.475746 0.468863
1433 2 0.540852 0.469837 0.47101
1426 2 0.546115 0.470807 0.473709
1418 2 0.550702 0.47439 0.475373
1419 2 0.545292 0.476364 0.471226
1417 2 0.551944 0.469174 0.478686
1410 2 0.555788 0.473752 0.480171
1411 2 0.554245 0.479809 0.476361
1420 2 0.549423 0.480134 0.472703
1503 2 0.439806 0.494781 0.47876
1458 2 0.44158 0.488171 0.477868
1224 2 0.442319 0.499307 0.476156
2303 2 0.443761 0.482104 0.477493
2302 2 0.446654 0.487183 0.474003
1464 2 0.451356 0.485421 0.471007
1465 2 0.456986 0.483329 0.468449
1466 2 0.450269 0.492294 0.470934
2306 2 0.455862 0.489776 0.467997
2304 2 0.445033 0.49318 0.474418
2305 2 0.453674 0.496167 0.468649
1762 2 0.459841 0.493882 0.465935
2216 2 0.447478 0.498206 0.472207
1457 2 0.461324 0.487057 0.465912
1456 2 0.463152 0.481374 0.46627
1759 2 0.471499 0.489651 0.462179
1756 2 0.469921 0.495652 0.462021
2310 2 0.47409 0.48351 0.462526
2307 2 0.467619 0.485239 0.463868
1760 2 0.46517 0.490929 0.463878
1763 2 0.464469 0.497661 0.463871
1706 2 0.528496 0.495113 0.461671
2319 2 0.532562 0.483404 0.464201
1710 2 0.526063 0.48466 0.462163
2320 2 0.53667 0.488318 0.464916
1699 2 0.534355 0.49405 0.463426
1705 2 0.530148 0.489371 0.462644
1434 2 0.537967 0.482294 0.466222
1700 2 0.532341 0.499826 0.462874
1427 2 0.543772 0.481658 0.469197
1421 2 0.552675 0.48516 0.473865
1428 2 0.547394 0.486672 0.470133
2321 2 0.542081 0.488567 0.46705
2324 2 0.551749 0.491326 0.472312
1692 2 0.539769 0.494562 0.465589
1684 2 0.544085 0.499257 0.467345
2322 2 0.546022 0.493314 0.468695
2323 2 0.550315 0.497131 0.470886
2244 2 0.555331 0.496235 0.474524
1223 2 0.557634 0.490777 0.476734
2245 2 0.557707 0.485151 0.47817
1945 2 0.560796 0.496893 0.479383
2294 2 0.437766 0.50082 0.48073
1767 2 0.441138 0.512193 0.478524
2215 2 0.44171 0.505922 0.477074
1764 2 0.458285 0.500155 0.466172
2214 2 0.446305 0.503924 0.473036
2033 2 0.45125 0.507481 0.470139
2034 2 0.451976 0.501614 0.469353
2212 2 0.445292 0.51036 0.474426
2218 2 0.455486 0.512155 0.468468
2032 2 0.456835 0.506249 0.467234
2030 2 0.449817 0.513737 0.471945
2213 2 0.444791 0.516919 0.476328
2029 2 0.459678 0.515767 0.466837
2026 2 0.454205 0.517995 0.470178
2025 2 0.461366 0.509359 0.465577
2217 2 0.463149 0.50362 0.464363
1749 2 0.475981 0.517172 0.461687
1757 2 0.468889 0.501529 0.462263
2219 2 0.470975 0.513741 0.46277
1761 2 0.4669 0.507882 0.463302
2020 2 0.465067 0.514246 0.464674
1693 2 0.537995 0.500231 0.464604
1685 2 0.53605 0.505829 0.464232
1695 2 0.530109 0.505587 0.462244
1688 2 0.527494 0.511762 0.462118
1680 2 0.524006 0.516926 0.461942
1687 2 0.536881 0.516604 0.465765
1694 2 0.53152 0.516885 0.463866
1677 2 0.533081 0.511016 0.463499
1686 2 0.53952 0.510843 0.46586
1675 2 0.548182 0.503691 0.469661
1676 2 0.542247 0.504981 0.466685
2243 2 0.546236 0.509628 0.468992
2242 2 0.55336 0.50232 0.473025
1962 2 0.551502 0.508475 0.471756
1963 2 0.549103 0.514561 0.47122
2155 2 0.556813 0.507814 0.476064
1955 2 0.553669 0.513422 0.474486
1678 2 0.542943 0.515817 0.468192
2156 2 0.555631 0.518741 0.477043
1954 2 0.559017 0.51281 0.478674
1944 2 0.558582 0.501979 0.476857
2247 2 0.561759 0.506892 0.480756
2031 2 0.44939 0.520425 0.473597
2211 2 0.444516 0.523043 0.478429
2024 2 0.448869 0.526531 0.476216
2210 2 0.453734 0.524757 0.472121
2023 2 0.454804 0.530417 0.47357
2028 2 0.45061 0.53332 0.478124
2016 2 0.459075 0.521315 0.468418
2027 2 0.459219 0.527131 0.470051
2018 2 0.455136 0.535577 0.475649
2017 2 0.460438 0.537223 0.4735
1769 2 0.44552 0.529929 0.480587
2022 2 0.462208 0.53233 0.47031
2220 2 0.470809 0.519844 0.463579
2021 2 0.465537 0.520423 0.465533
2221 2 0.479309 0.521567 0.46204
2008 2 0.464429 0.5262 0.467365
2015 2 0.474872 0.531738 0.465813
2014 2 0.476206 0.525891 0.46382
2007 2 0.466976 0.535576 0.469644
2000 2 0.470451 0.52543 0.465398
2009 2 0.46903 0.530779 0.467153
1991 2 0.472871 0.536559 0.468163
2003 2 0.479496 0.537055 0.46654
1992 2 0.480909 0.530888 0.464218
2223 2 0.492481 0.529931 0.462358
1990 2 0.485045 0.536762 0.465401
2222 2 0.483531 0.526376 0.462358
1999 2 0.486772 0.531406 0.463499
2144 2 0.491376 0.535921 0.464337
1220 2 0.496892 0.535042 0.463694
2224 2 0.499023 0.529771 0.462076
2234 2 0.50537 0.528671 0.461835
2236 2 0.511344 0.527138 0.461993
2235 2 0.50986 0.53365 0.463432
2145 2 0.503681 0.533883 0.463567
1989 2 0.514323 0.538223 0.465872
1987 2 0.516286 0.53201 0.463995
2237 2 0.516956 0.525908 0.462605
1985 2 0.520668 0.535698 0.466178
2239 2 0.528224 0.52157 0.463808
2238 2 0.522657 0.523327 0.4628
1976 2 0.52672 0.532975 0.466495
1980 2 0.527832 0.526955 0.4647
1984 2 0.521802 0.529769 0.46447
1975 2 0.53267 0.529685 0.46746
2240 2 0.533867 0.522581 0.465865
1972 2 0.537156 0.533083 0.470622
1971 2 0.531407 0.53606 0.469441
1970 2 0.538154 0.527211 0.468919
1964 2 0.550468 0.520435 0.473528
1679 2 0.539956 0.521546 0.468162
2241 2 0.544049 0.526082 0.471259
1969 2 0.54525 0.520763 0.470621
1957 2 0.54887 0.527778 0.474948
1965 2 0.543233 0.531937 0.473162
1948 2 0.547641 0.533988 0.477
1956 2 0.5533 0.523894 0.477057
2158 2 0.552568 0.530492 0.479128
1966 2 0.541375 0.537033 0.474363
2006 2 0.45257 0.539639 0.480304
2012 2 0.458332 0.541319 0.477119
2001 2 0.46555 0.540655 0.472764
2002 2 0.470939 0.541966 0.471311
2010 2 0.468749 0.54611 0.474647
2011 2 0.463521 0.544753 0.476382
1996 2 0.471796 0.551075 0.476592
2140 2 0.475803 0.556411 0.479834
1995 2 0.475507 0.547311 0.472651
1994 2 0.477789 0.552685 0.475645
2142 2 0.476385 0.542669 0.469832
2139 2 0.465866 0.550546 0.47942
1993 2 0.482039 0.547636 0.47137
2114 2 0.483058 0.556598 0.477369
2123 2 0.495338 0.541055 0.465977
2121 2 0.489281 0.54166 0.46696
2118 2 0.49413 0.546376 0.468761
2141 2 0.487477 0.547127 0.469821
2143 2 0.483055 0.542212 0.468057
2108 2 0.485026 0.551707 0.473369
2112 2 0.490606 0.551923 0.472347
2113 2 0.48969 0.556963 0.47658
2117 2 0.496987 0.551099 0.471462
2111 2 0.495409 0.556253 0.475316
2120 2 0.49954 0.544737 0.467721
2146 2 0.507934 0.539083 0.465413
2124 2 0.502094 0.53954 0.465378
2116 2 0.501343 0.555476 0.474399
2147 2 0.512677 0.543727 0.468014
2122 2 0.505886 0.544373 0.467734
2119 2 0.503504 0.549923 0.470641
2148 2 0.51078 0.548757 0.470628
1983 2 0.508184 0.553752 0.473427
2149 2 0.514975 0.552003 0.473349
1986 2 0.517542 0.546733 0.470617
2150 2 0.51198 0.557389 0.476906
2110 2 0.519087 0.555464 0.477135
1988 2 0.5193 0.541498 0.468241
1981 2 0.526112 0.539351 0.468806
1973 2 0.5357 0.539301 0.473009
1977 2 0.53066 0.542049 0.471767
1978 2 0.521817 0.550054 0.473893
1979 2 0.526114 0.553167 0.477773
1982 2 0.523892 0.544521 0.470937
1967 2 0.53458 0.545753 0.475937
1974 2 0.528862 0.547573 0.474444
1968 2 0.532138 0.551013 0.478805
1960 2 0.537935 0.549077 0.480491
1959 2 0.540287 0.543232 0.4775
1958 2 0.545164 0.540287 0.478847
2107 2 0.49337 0.561062 0.479959
2100 2 0.500184 0.560044 0.478132
2115 2 0.506205 0.558617 0.477314
2097 2 0.517057 0.559726 0.480396
1312 2 0.472714 0.436488 0.492985
1310 2 0.476288 0.438402 0.48571
1309 2 0.478358 0.43508 0.490756
2412 2 0.466638 0.439103 0.494272
1313 2 0.470211 0.439945 0.488078
1234 2 0.476879 0.433835 0.498146
1225 2 0.4708 0.436426 0.499409
2410 2 0.482468 0.432634 0.496051
1306 2 0.482577 0.437233 0.484397
1305 2 0.485194 0.434075 0.488946
1301 2 0.48978 0.43642 0.483659
1249 2 0.491852 0.433035 0.488916
2406 2 0.495474 0.435702 0.483377
1295 2 0.499055 0.432573 0.488626
1250 2 0.496003 0.43077 0.494129
2408 2 0.488366 0.431574 0.494714
1274 2 0.511484 0.437864 0.481971
1289 2 0.502479 0.435149 0.484221
1260 2 0.503524 0.430947 0.492668
1272 2 0.506858 0.433524 0.487332
1281 2 0.510656 0.431985 0.492251
1273 2 0.514446 0.434958 0.48727
1261 2 0.508129 0.430597 0.498052
2400 2 0.514196 0.431392 0.499344
1287 2 0.516885 0.432771 0.493684
2390 2 0.518055 0.438293 0.482856
1294 2 0.500058 0.430075 0.499367
1280 2 0.521124 0.435984 0.488851
1271 2 0.528786 0.438087 0.490805
1270 2 0.535038 0.440736 0.492165
2402 2 0.524556 0.43514 0.494231
2398 2 0.531092 0.437626 0.496931
1288 2 0.524758 0.439335 0.485216
2392 2 0.531489 0.441902 0.486055
2395 2 0.537453 0.441078 0.497186
1263 2 0.5215 0.433473 0.499835
1314 2 0.460944 0.44232 0.495524
1477 2 0.458985 0.45089 0.483026
1497 2 0.445866 0.456614 0.494171
1488 2 0.458102 0.446216 0.489904
1493 2 0.456128 0.445812 0.495526
1492 2 0.454623 0.450787 0.487948
1490 2 0.454703 0.455333 0.482639
2295 2 0.451127 0.451051 0.493654
1495 2 0.449402 0.455317 0.488846
2297 2 0.450095 0.459037 0.483679
1498 2 0.445267 0.460737 0.488411
1496 2 0.447382 0.454045 0.499625
2373 2 0.45222 0.449082 0.499552
2376 2 0.474743 0.442555 0.481505
2296 2 0.462815 0.446691 0.484592
2375 2 0.464324 0.442518 0.489361
1486 2 0.468814 0.443713 0.483222
1422 2 0.527693 0.443814 0.481456
2396 2 0.536599 0.445238 0.485833
2394 2 0.538935 0.450026 0.482387
1217 2 0.540384 0.445013 0.490997
2334 2 0.54374 0.450161 0.486722
1406 2 0.543947 0.454799 0.481825
1407 2 0.548174 0.454389 0.486344
1414 2 0.547661 0.459818 0.480869
1408 2 0.552278 0.459162 0.486392
2332 2 0.550621 0.453326 0.49197
2333 2 0.545852 0.448449 0.492681
1671 2 0.554736 0.457734 0.493057
1674 2 0.548266 0.449385 0.498983
2335 2 0.543438 0.445164 0.497279
1673 2 0.552516 0.453809 0.498165
2329 2 0.557206 0.459432 0.499117
1499 2 0.438232 0.472741 0.488419
1507 2 0.438258 0.468122 0.49495
2299 2 0.441132 0.466923 0.489029
1506 2 0.44201 0.461974 0.494247
1515 2 0.435793 0.47428 0.493339
1501 2 0.440214 0.477843 0.482837
1508 2 0.436622 0.478546 0.487632
1516 2 0.433727 0.480634 0.49359
1500 2 0.442258 0.471377 0.483738
1522 2 0.433833 0.476803 0.499344
2298 2 0.445442 0.464935 0.484234
2330 2 0.556185 0.462496 0.48893
1415 2 0.552637 0.463999 0.482483
1416 2 0.556755 0.468913 0.484173
1413 2 0.558966 0.479205 0.480889
2331 2 0.559514 0.463771 0.495576
2328 2 0.559543 0.466899 0.490156
1412 2 0.560602 0.475061 0.485181
1409 2 0.563009 0.469869 0.496475
1659 2 0.563067 0.472856 0.490818
1651 2 0.565474 0.478398 0.49316
1653 2 0.564224 0.480551 0.487789
1667 2 0.565894 0.476113 0.498815
1511 2 0.437166 0.490356 0.48218
1502 2 0.438789 0.484083 0.481695
1509 2 0.435207 0.484368 0.486954
1518 2 0.432191 0.486619 0.492889
1510 2 0.433412 0.490397 0.488321
2293 2 0.435041 0.496114 0.484298
1783 2 0.430751 0.492296 0.495506
2291 2 0.431849 0.497144 0.490395
1517 2 0.432029 0.483451 0.499592
1789 2 0.430014 0.498839 0.497066
2325 2 0.561761 0.490693 0.481094
1650 2 0.568205 0.48333 0.497745
2327 2 0.562322 0.484583 0.483223
1652 2 0.566961 0.484979 0.491272
1644 2 0.568852 0.489935 0.494852
1645 2 0.565871 0.489593 0.486777
1635 2 0.568264 0.494663 0.491222
1638 2 0.565198 0.495739 0.484771
1643 2 0.569854 0.494881 0.498942
1766 2 0.437354 0.506904 0.481597
1765 2 0.433783 0.502622 0.486106
2292 2 0.431289 0.503935 0.491999
1782 2 0.433898 0.508616 0.48713
1795 2 0.431655 0.510835 0.493451
1784 2 0.436877 0.513226 0.483559
1785 2 0.433922 0.515454 0.48916
1792 2 0.430332 0.506423 0.498073
1787 2 0.432224 0.516626 0.495963
1775 2 0.44027 0.517856 0.480967
1634 2 0.569683 0.500911 0.495407
2326 2 0.567344 0.500893 0.488617
1942 2 0.559843 0.518805 0.481385
1637 2 0.563693 0.501617 0.482565
1636 2 0.568548 0.506561 0.492206
2248 2 0.56665 0.512478 0.489639
1646 2 0.565686 0.506827 0.486054
1935 2 0.568821 0.512473 0.49679
1939 2 0.567038 0.518058 0.494371
2157 2 0.56359 0.512592 0.484033
1943 2 0.564389 0.51781 0.487671
2251 2 0.569664 0.506639 0.499059
1774 2 0.436941 0.520532 0.486329
1791 2 0.434822 0.521226 0.491761
1776 2 0.437759 0.526596 0.489037
1778 2 0.436756 0.528279 0.494997
1770 2 0.439063 0.534357 0.497882
1768 2 0.440089 0.532803 0.49125
2209 2 0.440889 0.524644 0.482933
2013 2 0.441995 0.530459 0.485296
1793 2 0.433865 0.523044 0.49849
2019 2 0.447016 0.535517 0.482809
2207 2 0.443959 0.536547 0.488152
1946 2 0.55731 0.526089 0.481513
1947 2 0.556201 0.53274 0.484046
2159 2 0.551258 0.536545 0.481669
1938 2 0.55416 0.538285 0.486816
2246 2 0.561316 0.52282 0.485029
1931 2 0.565855 0.523999 0.497308
1926 2 0.564452 0.523136 0.490775
1936 2 0.562868 0.529117 0.493517
1941 2 0.560047 0.528547 0.487293
1940 2 0.558497 0.534643 0.489841
1932 2 0.560839 0.534699 0.496827
2004 2 0.460001 0.547977 0.48099
1777 2 0.443009 0.539582 0.494003
1997 2 0.455038 0.545131 0.482365
2208 2 0.445763 0.544397 0.498107
2206 2 0.452003 0.546437 0.487774
1772 2 0.448928 0.540808 0.485264
1781 2 0.447663 0.543915 0.491344
1773 2 0.45073 0.54887 0.494562
2137 2 0.455048 0.552017 0.49162
2005 2 0.457583 0.550935 0.486484
2135 2 0.460329 0.555844 0.490917
1222 2 0.459404 0.556912 0.497208
1998 2 0.454197 0.552776 0.498547
2136 2 0.462822 0.553406 0.484269
2096 2 0.469555 0.55517 0.481785
2088 2 0.466194 0.557428 0.487191
1908 2 0.535613 0.554341 0.4846
1952 2 0.530643 0.556101 0.482593
1951 2 0.539921 0.555256 0.490475
1937 2 0.556785 0.539673 0.49465
1950 2 0.543859 0.545715 0.482169
2163 2 0.541824 0.551232 0.486096
1934 2 0.552838 0.543523 0.490572
2160 2 0.549693 0.548281 0.494346
1949 2 0.549098 0.542354 0.484131
1916 2 0.545079 0.551992 0.4924
2161 2 0.547347 0.547572 0.488082
1929 2 0.541913 0.55579 0.49767
1933 2 0.553825 0.544708 0.497689
1922 2 0.547066 0.551837 0.499257
2138 2 0.48014 0.560427 0.482602
2087 2 0.473452 0.559489 0.484879
2133 2 0.470321 0.561642 0.490646
2134 2 0.465138 0.559798 0.493379
2035 2 0.470138 0.563149 0.497776
2086 2 0.475533 0.56494 0.494597
2103 2 0.477256 0.563238 0.488472
2131 2 0.480872 0.567195 0.498527
2101 2 0.486051 0.560488 0.480869
2109 2 0.483473 0.564194 0.486295
2105 2 0.498021 0.564238 0.48313
2094 2 0.493486 0.569024 0.493943
2095 2 0.481466 0.566392 0.492012
2102 2 0.488389 0.567015 0.489686
2093 2 0.490661 0.564187 0.48424
2099 2 0.495109 0.567357 0.488938
2085 2 0.486563 0.568334 0.496244
2091 2 0.499196 0.569619 0.495805
2084 2 0.491775 0.569664 0.499914
2106 2 0.510738 0.561862 0.481704
2092 2 0.50463 0.563414 0.482417
2083 2 0.501354 0.567306 0.488587
2104 2 0.508096 0.566453 0.487447
2090 2 0.514243 0.564515 0.485983
2098 2 0.505454 0.569153 0.493711
2127 2 0.510045 0.569346 0.498364
2082 2 0.51246 0.567897 0.492669
2081 2 0.51615 0.568042 0.4984
2152 2 0.51822 0.565988 0.490679
2154 2 0.536597 0.559127 0.494541
1961 2 0.523546 0.558381 0.481297
2151 2 0.5203 0.562117 0.485006
2162 2 0.533322 0.55876 0.48898
2153 2 0.530093 0.562596 0.494489
1953 2 0.527602 0.560308 0.486523
2089 2 0.524357 0.563588 0.490446
2080 2 0.522214 0.565969 0.496097
2414 2 0.463654 0.439921 0.500534
2423 2 0.468456 0.438115 0.50562
1227 2 0.478926 0.435116 0.510065
2422 2 0.47448 0.435172 0.505053
1324 2 0.472849 0.438058 0.511022
2420 2 0.477516 0.43928 0.515813
1325 2 0.46616 0.441349 0.510557
2424 2 0.461986 0.442116 0.505742
2421 2 0.471715 0.441647 0.516069
1226 2 0.480909 0.43278 0.503266
1244 2 0.493577 0.43017 0.500334
1228 2 0.483839 0.436068 0.514447
1235 2 0.485196 0.432952 0.508169
1242 2 0.487633 0.4311 0.501406
1243 2 0.491536 0.431535 0.507859
1236 2 0.489697 0.434723 0.513993
1245 2 0.495685 0.433535 0.512546
1258 2 0.49718 0.430445 0.504754
1237 2 0.495379 0.437099 0.518279
1229 2 0.489133 0.43854 0.518779
1247 2 0.501583 0.435733 0.516616
1251 2 0.501614 0.43217 0.510325
1256 2 0.506915 0.437912 0.518993
1259 2 0.512577 0.433636 0.511068
1255 2 0.503979 0.430378 0.504129
1257 2 0.509941 0.43146 0.506045
1262 2 0.515832 0.432428 0.505523
1252 2 0.50668 0.433579 0.513027
1266 2 0.512988 0.436949 0.516554
1399 2 0.51871 0.435981 0.51241
1248 2 0.519565 0.438976 0.517168
1279 2 0.527096 0.435493 0.501195
1268 2 0.522072 0.434185 0.506339
1267 2 0.524783 0.437772 0.5121
1264 2 0.528872 0.437446 0.507501
1269 2 0.534012 0.438676 0.502099
2397 2 0.534414 0.441085 0.509225
2399 2 0.530404 0.441383 0.514171
1265 2 0.524826 0.441557 0.517845
1505 2 0.443231 0.459063 0.50009
1494 2 0.457289 0.444487 0.50184
1218 2 0.456809 0.446282 0.507348
1316 2 0.453591 0.455137 0.516061
2374 2 0.453992 0.450181 0.511191
1315 2 0.461025 0.445414 0.512247
1326 2 0.458751 0.450086 0.515909
2372 2 0.450753 0.450857 0.505247
2371 2 0.449321 0.454963 0.510982
1504 2 0.445732 0.456924 0.506179
1327 2 0.448994 0.459942 0.515762
1512 2 0.445154 0.460999 0.511262
1332 2 0.465602 0.445424 0.516367
1402 2 0.535735 0.444775 0.51444
1400 2 0.530757 0.445497 0.518681
1404 2 0.539536 0.442531 0.503583
1403 2 0.540283 0.445462 0.509835
1401 2 0.540702 0.449507 0.516167
1655 2 0.553412 0.455525 0.504539
1669 2 0.549948 0.454078 0.510548
1670 2 0.554142 0.459196 0.510452
1672 2 0.548886 0.450714 0.505366
2336 2 0.544421 0.446298 0.503845
2337 2 0.545198 0.449481 0.511243
1398 2 0.545676 0.454059 0.515853
2338 2 0.550095 0.458966 0.516109
1662 2 0.557597 0.460895 0.505333
1521 2 0.436398 0.470589 0.500261
1514 2 0.439842 0.46439 0.50063
1520 2 0.438351 0.468826 0.506452
1513 2 0.441599 0.462582 0.506567
1519 2 0.441219 0.467892 0.512243
1525 2 0.438504 0.473558 0.51203
1526 2 0.435369 0.474388 0.505264
1527 2 0.439484 0.478518 0.516825
1528 2 0.43582 0.479586 0.511671
1523 2 0.433251 0.480611 0.505597
2370 2 0.442534 0.471753 0.517255
1320 2 0.445543 0.465274 0.516557
1665 2 0.554737 0.463925 0.514761
1660 2 0.557675 0.475162 0.518261
1658 2 0.561541 0.466455 0.501642
1664 2 0.558643 0.465224 0.509708
1668 2 0.558165 0.469684 0.51458
1656 2 0.564086 0.471961 0.503069
1661 2 0.561888 0.474917 0.512802
1666 2 0.561724 0.470069 0.508436
1654 2 0.564503 0.476594 0.507633
2290 2 0.430529 0.489816 0.500709
1524 2 0.432001 0.486999 0.505959
1529 2 0.434308 0.484932 0.51124
1532 2 0.437577 0.484876 0.516511
1533 2 0.435545 0.491195 0.515384
2289 2 0.432163 0.492182 0.509561
2288 2 0.430144 0.495363 0.503414
2287 2 0.433844 0.497248 0.514053
2286 2 0.431408 0.499251 0.508267
1648 2 0.565294 0.482026 0.510582
1632 2 0.561816 0.480833 0.515946
1657 2 0.567364 0.481972 0.503773
1663 2 0.568987 0.488113 0.50196
1642 2 0.564926 0.487893 0.514239
1649 2 0.567572 0.487444 0.50817
1631 2 0.567267 0.493986 0.511498
1633 2 0.569026 0.493766 0.505344
1640 2 0.563855 0.493617 0.517077
2252 2 0.565212 0.499501 0.515052
1917 2 0.568578 0.499743 0.508971
1641 2 0.560979 0.48631 0.518965
1796 2 0.430765 0.511538 0.500547
1804 2 0.4302 0.502511 0.502599
1790 2 0.431183 0.506351 0.507291
1803 2 0.433679 0.504122 0.51333
1805 2 0.437271 0.509906 0.517668
1801 2 0.433743 0.510104 0.512371
1800 2 0.43199 0.512424 0.506785
1802 2 0.436675 0.516093 0.515359
1797 2 0.433728 0.517751 0.508951
1786 2 0.432427 0.517844 0.502584
1538 2 0.43711 0.503211 0.518481
1 1 0.5 0.5 0.5
2 1 0.5 0.5 0.5
3 1 0.5 0.5 0.5
4 1 0.5 0.5 0.5
5 1 0.5 0.5 0.5
6 1 0.5 0.5 0.5
7 1 0.5 0.5 0.5
8 1 0.5 0.5 0.5
9 1 0.5 0.5 0.5
10 1 0.5 0.5 0.5
11 1 0.5 0.5 0.5
12 1 0.5 0.5 0.5
13 1 0.5 0.5 0.5
14 1 0.5 0.5 0.5
15 1 0.5 0.5 0.5
16 1 0.5 0.5 0.5
17 1 0.5 0.5 0.5
18 1 0.5 0.5 0.5
19 1 0.5 0.5 0.5
20 1 0.5 0.5 0.5
21 1 0.5 0.5 0.5
22 1 0.5 0.5 0.5
23 1 0.5 0.5 0.5
24 1 0.5 0.5 0.5
25 1 0.5 0.5 0.5
26 1 0.5 0.5 0.5
27 1 0.5 0.5 0.5
28 1 0.5 0.5 0.5
29 1 0.5 0.5 0.5
30 1 0.5 0.5 0.5
31 1 0.5 0.5 0.5
32 1 0.5 0.5 0.5
33 1 0.5 0.5 0.5
34 1 0.5 0.5 0.5
35 1 0.5 0.5 0.5
36 1 0.5 0.5 0.5
37 1 0.5 0.5 0.5
38 1 0.5 0.5 0.5
39 1 0.5 0.5 0.5
40 1 0.5 0.5 0.5
41 1 0.5 0.5 0.5
42 1 0.5 0.5 0.5
43 1 0.5 0.5 0.5
44 1 0.5 0.5 0.5
45 1 0.5 0.5 0.5
46 1 0.5 0.5 0.5
47 1 0.5 0.5 0.5
48 1 0.5 0.5 0.5
49 1 0.5 0.5 0.5
50 1 0.5 0.5 0.5
51 1 0.5 0.5 0.5
52 1 0.5 0.5 0.5
53 1 0.5 0.5 0.5
54 1 0.5 0.5 0.5
55 1 0.5 0.5 0.5
56 1 0.5 0.5 0.5
57 1 0.5 0.5 0.5
58 1 0.5 0.5 0.5
59 1 0.5 0.5 0.5
60 1 0.5 0.5 0.5
61 1 0.5 0.5 0.5
62 1 0.5 0.5 0.5
63 1 0.5 0.5 0.5
64 1 0.5 0.5 0.5
65 1 0.5 0.5 0.5
66 1 0.5 0.5 0.5
67 1 0.5 0.5 0.5
68 1 0.5 0.5 0.5
69 1 0.5 0.5 0.5
70 1 0.5 0.5 0.5
71 1 0.5 0.5 0.5
72 1 0.5 0.5 0.5
73 1 0.5 0.5 0.5
74 1 0.5 0.5 0.5
75 1 0.5 0.5 0.5
76 1 0.5 0.5 0.5
77 1 0.5 0.5 0.5
78 1 0.5 0.5 0.5
79 1 0.5 0.5 0.5
80 1 0.5 0.5 0.5
81 1 0.5 0.5 0.5
82 1 0.5 0.5 0.5
83 1 0.5 0.5 0.5
84 1 0.5 0.5 0.5
85 1 0.5 0.5 0.5
86 1 0.5 0.5 0.5
87 1 0.5 0.5 0.5
88 1 0.5 0.5 0.5
89 1 0.5 0.5 0.5
90 1 0.5 0.5 0.5
91 1 0.5 0.5 0.5
92 1 0.5 0.5 0.5
93 1 0.5 0.5 0.5
94 1 0.5 0.5 0.5
95 1 0.5 0.5 0.5
96 1 0.5 0.5 0.5
97 1 0.5 0.5 0.5
98 1 0.5 0.5 0.5
99 1 0.5 0.5 0.5
100 1 0.5 0.5 0.5
101 1 0.5 0.5 0.5
102 1 0.5 0.5 0.5
103 1 0.5 0.5 0.5
104 1 0.5 0.5 0.5
105 1 0.5 0.5 0.5
106 1 0.5 0.5 0.5
107 1 0.5 0.5 0.5
108 1 0.5 0.5 0.5
109 1 0.5 0.5 0.5
110 1 0.5 0.5 0.5
111 1 0.5 0.5 0.5
112 1 0.5 0.5 0.5
113 1 0.5 0.5 0.5
114 1 0.5 0.5 0.5
115 1 0.5 0.5 0.5
116 1 0.5 0.5 0.5
117 1 0.5 0.5 0.5
118 1 0.5 0.5 0.5
119 1 0.5 0.5 0.5
120 1 0.5 0.5 0.5
121 1 0.5 0.5 0.5
122 1 0.5 0.5 0.5
123 1 0.5 0.5 0.5
124 1 0.5 0.5 0.5
125 1 0.5 0.5 0.5
126 1 0.5 0.5 0.5
127 1 0.5 0.5 0.5
128 1 0.5 0.5 0.5
129 1 0.5 0.5 0.5
130 1 0.5 0.5 0.5
131 1 0.5 0.5 0.5
132 1 0.5 0.5 0.5
133 1 0.5 0.5 0.5
134 1 0.5 0.5 0.5
135 1 0.5 0.5 0.5
136 1 0.5 0.5 0.5
137 1 0.5 0.5 0.5
138 1 0.5 0.5 0.5
139 1 0.5 0.5 0.5
140 1 0.5 0.5 0.5
141 1 0.5 0.5 0.5
142 1 0.5 0.5 0.5
143 1 0.5 0.5 0.5
144 1 0.5 0.5 0.5
145 1 0.5 0.5 0.5
146 1 0.5 0.5 0.5
147 1 0.5 0.5 0.5
148 1 0.5 0.5 0.5
149 1 0.5 0.5 0.5
150 1 0.5 0.5 0.5
151 1 0.5 0.5 0.5
152 1 0.5 0.5 0.5
153 1 0.5 0.5 0.5
154 1 0.5 0.5 0.5
155 1 0.5 0.5 0.5
156 1 0.5 0.5 0.5
157 1 0.5 0.5 0.5
158 1 0.5 0.5 0.5
159 1 0.5 0.5 0.5
160 1 0.5 0.5 0.5
161 1 0.5 0.5 0.5
162 1 0.5 0.5 0.5
163 1 0.5 0.5 0.5
164 1 0.5 0.5 0.5
165 1 0.5 0.5 0.5
166 1 0.5 0.5 0.5
167 1 0.5 0.5 0.5
168 1 0.5 0.5 0.5
169 1 0.5 0.5 0.5
170 1 0.5 0.5 0.5
171 1 0.5 0.5 0.5
172 1 0.5 0.5 0.5
173 1 0.5 0.5 0.5
174 1 0.5 0.5 0.5
175 1 0.5 0.5 0.5
176 1 0.5 0.5 0.5
177 1 0.5 0.5 0.5
178 1 0.5 0.5 0.5
179 1 0.5 0.5 0.5
180 1 0.5 0.5 0.5
181 1 0.5 0.5 0.5
182 1 0.5 0.5 0.5
183 1 0.5 0.5 0.5
184 1 0.5 0.5 0.5
185 1 0.5 0.5 0.5
186 1 0.5 0.5 0.5
187 1 0.5 0.5 0.5
188 1 0.5 0.5 0.5
189 1 0.5 0.5 0.5
190 1 0.5 0.5 0.5
191 1 0.5 0.5 0.5
192 1 0.5 0.5 0.5
193 1 0.5 0.5 0.5
194 1 0.5 0.5 0.5
195 1 0.5 0.5 0.5
196 1 0.5 0.5 0.5
197 1 0.5 0.5 0.5
198 1 0.5 0.5 0.5
199 1 0.5 0.5 0.5
200 1 0.5 0.5 0.5
201 1 0.5 0.5 0.5
202 1 0.5 0.5 0.5
203 1 0.5 0.5 0.5
204 1 0.5 0.5 0.5
205 1 0.5 0.5 0.5
206 1 0.5 0.5 0.5
207 1 0.5 0.5 0.5
208 1 0.5 0.5 0.5
209 1 0.5 0.5 0.5
210 1 0.5 0.5 0.5
211 1 0.5 0.5 0.5
212 1 0.5 0.5 0.5
213 1 0.5 0.5 0.5
214 1 0.5 0.5 0.5
215 1 0.5 0.5 0.5
216 1 0.5 0.5 0.5
217 1 0.5 0.5 0.5
218 1 0.5 0.5 0.5
219 1 0.5 0.5 0.5
220 1 0.5 0.5 0.5
221 1 0.5 0.5 0.5
222 1 0.5 0.5 0.5
223 1 0.5 0.5 0.5
224 1 0.5 0.5 0.5
225 1 0.5 0.5 0.5
226 1 0.5 0.5 0.5
227 1 0.5 0.5 0.5
228 1 0.5 0.5 0.5
229 1 0.5 0.5 0.5
230 1 0.5 0.5 0.5
231 1 0.5 0.5 0.5
232 1 0.5 0.5 0.5
233 1 0.5 0.5 0.5
234 1 0.5 0.5 0.5
235 1 0.5 0.5 0.5
236 1 0.5 0.5 0.5
237 1 0.5 0.5 0.5
238 1 0.5 0.5 0.5
239 1 0.5 0.5 0.5
240 1 0.5 0.5 0.5
241 1 0.5 0.5 0.5
242 1 0.5 0.5 0.5
243 1 0.5 0.5 0.5
244 1 0.5 0.5 0.5
245 1 0.5 0.5 0.5
246 1 0.5 0.5 0.5
247 1 0.5 0.5 0.5
248 1 0.5 0.5 0.5
249 1 0.5 0.5 0.5
250 1 0.5 0.5 0.5
251 1 0.5 0.5 0.5
252 1 0.5 0.5 0.5
253 1 0.5 0.5 0.5
254 1 0.5 0.5 0.5
255 1 0.5 0.5 0.5
256 1 0.5 0.5 0.5
257 1 0.5 0.5 0.5
258 1 0.5 0.5 0.5
259 1 0.5 0.5 0.5
260 1 0.5 0.5 0.5
261 1 0.5 0.5 0.5
262 1 0.5 0.5 0.5
263 1 0.5 0.5 0.5
264 1 0.5 0.5 0.5
265 1 0.5 0.5 0.5
266 1 0.5 0.5 0.5
267 1 0.5 0.5 0.5
268 1 0.5 0.5 0.5
269 1 0.5 0.5 0.5
270 1 0.5 0.5 0.5
271 1 0.5 0.5 0.5
272 1 0.5 0.5 0.5
273 1 0.5 0.5 0.5
274 1 0.5 0.5 0.5
275 1 0.5 0.5 0.5
276 1 0.5 0.5 0.5
277 1 0.5 0.5 0.5
278 1 0.5 0.5 0.5
279 1 0.5 0.5 0.5
280 1 0.5 0.5 0.5
281 1 0.5 0.5 0.5
282 1 0.5 0.5 0.5
283 1 0.5 0.5 0.5
284 1 0.5 0.5 0.5
285 1 0.5 0.5 0.5
286 1 0.5 0.5 0.5
287 1 0.5 0.5 0.5
288 1 0.5 0.5 0.5
289 1 0.5 0.5 0.5
290 1 0.5 0.5 0.5
291 1 0.5 0.5 0.5
292 1 0.5 0.5 0.5
293 1 0.5 0.5 0.5
294 1 0.5 0.5 0.5
295 1 0.5 0.5 0.5
296 1 0.5 0.5 0.5
297 1 0.5 0.5 0.5
298 1 0.5 0.5 0.5
299 1 0.5 0.5 0.5
300 1 0.5 0.5 0.5
301 1 0.5 0.5 0.5
302 1 0.5 0.5 0.5
303 1 0.5 0.5 0.5
304 1 0.5 0.5 0.5
305 1 0.5 0.5 0.5
306 1 0.5 0.5 0.5
307 1 0.5 0.5 0.5
308 1 0.5 0.5 0.5
309 1 0.5 0.5 0.5