ITEM: TIMESTEP
50000
ITEM: NUMBER OF ATOMS
2424
ITEM: BOX BOUNDS pp pp pp
-50 50
-50 50
-50 50
ITEM: ATOMS id type xs ys zs
1474 2 0.469365 0.45411 0.479543
1467 2 0.475641 0.451514 0.479157
1469 2 0.474207 0.458623 0.477377
1477 2 0.468122 0.459875 0.47813
2381 2 0.479645 0.455435 0.477296
1483 2 0.463475 0.456745 0.480464
2378 2 0.481841 0.449845 0.478777
1459 2 0.483781 0.459534 0.47546
2382 2 0.48591 0.453655 0.476948
1292 2 0.494551 0.446419 0.47886
1293 2 0.490558 0.457613 0.475491
1299 2 0.492551 0.452476 0.476958
2379 2 0.488346 0.448733 0.478653
1285 2 0.496786 0.456688 0.47543
1291 2 0.498688 0.450726 0.477423
1302 2 0.50065 0.445788 0.479156
1284 2 0.504125 0.451606 0.477107
1444 2 0.50895 0.4492 0.478212
2388 2 0.51416 0.451798 0.477643
2387 2 0.502008 0.457653 0.475195
1445 2 0.508423 0.460465 0.474677
1441 2 0.508919 0.455179 0.476129
1442 2 0.51468 0.457832 0.475946
1275 2 0.513832 0.445887 0.479926
1283 2 0.506517 0.443913 0.480208
2390 2 0.519734 0.448522 0.479653
1440 2 0.51974 0.454479 0.477535
1437 2 0.519871 0.460887 0.475695
1436 2 0.525626 0.456301 0.477887
1423 2 0.530689 0.452869 0.480123
1435 2 0.525512 0.450194 0.479684
1431 2 0.536251 0.456669 0.480303
1432 2 0.53 0.459399 0.477658
1415 2 0.540574 0.46114 0.480045
1463 2 0.453071 0.47756 0.478365
1473 2 0.454725 0.471776 0.478937
1472 2 0.46012 0.469074 0.47797
1470 2 0.459564 0.475426 0.476582
1478 2 0.455864 0.465036 0.480126
2301 2 0.448706 0.473557 0.480677
1501 2 0.447645 0.480191 0.48006
1476 2 0.461268 0.462645 0.47915
1451 2 0.478385 0.461817 0.475636
1464 2 0.463767 0.479145 0.474802
1455 2 0.464792 0.472552 0.475767
1460 2 0.476598 0.46795 0.474532
1468 2 0.472056 0.464435 0.475991
1454 2 0.469541 0.476559 0.474172
1453 2 0.475072 0.474809 0.473545
1462 2 0.470526 0.470409 0.47484
1471 2 0.466508 0.466338 0.476819
1461 2 0.480472 0.478314 0.472271
1744 2 0.474237 0.48026 0.472701
2313 2 0.480843 0.472312 0.473377
1286 2 0.495377 0.461836 0.4742
1452 2 0.482486 0.466121 0.474048
1450 2 0.488816 0.463299 0.474214
1278 2 0.49787 0.467244 0.473046
2383 2 0.486367 0.469972 0.47312
2384 2 0.492309 0.467913 0.47312
2312 2 0.48595 0.475825 0.472185
1720 2 0.49665 0.478158 0.471385
1729 2 0.496785 0.472468 0.472099
2314 2 0.491607 0.474112 0.471934
1721 2 0.490545 0.480305 0.47124
1276 2 0.502612 0.46322 0.473856
1447 2 0.51384 0.463162 0.474448
1213 2 0.502452 0.475483 0.471687
1277 2 0.503058 0.469999 0.472533
2386 2 0.507507 0.466691 0.473286
1449 2 0.513478 0.469836 0.473202
2385 2 0.508702 0.472535 0.472136
2315 2 0.507369 0.478782 0.471214
2316 2 0.513344 0.476252 0.472044
1719 2 0.518927 0.478427 0.472236
1448 2 0.518899 0.472824 0.473126
1446 2 0.519056 0.466756 0.474086
1443 2 0.524959 0.462898 0.476002
2317 2 0.523891 0.475827 0.47312
1438 2 0.534864 0.462744 0.478139
2318 2 0.524534 0.469284 0.474377
1434 2 0.534164 0.469854 0.47609
1439 2 0.529811 0.466044 0.476208
2319 2 0.528887 0.472969 0.474535
2320 2 0.533515 0.477198 0.474752
1710 2 0.528163 0.479307 0.473536
1425 2 0.538147 0.473938 0.476542
1428 2 0.539843 0.479848 0.475788
1417 2 0.539496 0.467314 0.478048
1433 2 0.543587 0.471548 0.478281
1420 2 0.545046 0.477506 0.477882
1427 2 0.550221 0.475152 0.480082
1411 2 0.553462 0.480048 0.480531
1424 2 0.545245 0.465417 0.480237
1465 2 0.457476 0.481624 0.4763
2302 2 0.451952 0.484189 0.477856
2304 2 0.451469 0.497096 0.476966
1762 2 0.456555 0.493284 0.475457
2307 2 0.446284 0.493449 0.479274
2308 2 0.451094 0.490464 0.477819
1457 2 0.456998 0.488158 0.475831
1466 2 0.446244 0.487186 0.479644
1458 2 0.445214 0.49959 0.479286
2305 2 0.456076 0.499918 0.47569
1759 2 0.461637 0.496914 0.474282
2310 2 0.468704 0.482722 0.473638
1755 2 0.462547 0.490626 0.474234
1456 2 0.462488 0.484962 0.474637
2309 2 0.46845 0.488393 0.47319
1756 2 0.471681 0.499457 0.472163
1745 2 0.472736 0.492501 0.472272
1750 2 0.474188 0.48653 0.472424
1751 2 0.467722 0.495146 0.472905
1752 2 0.477346 0.496497 0.471383
1738 2 0.478902 0.489871 0.471405
1737 2 0.479382 0.484006 0.472111
2311 2 0.484863 0.481719 0.471583
1722 2 0.495417 0.4842 0.470629
1730 2 0.484733 0.487954 0.470992
1739 2 0.489243 0.492109 0.470362
1746 2 0.482808 0.494028 0.470922
1723 2 0.495753 0.490173 0.47017
1731 2 0.490211 0.486016 0.470694
1732 2 0.494092 0.496123 0.470119
1740 2 0.488234 0.497823 0.470319
2229 2 0.498821 0.499272 0.470069
2225 2 0.501714 0.481648 0.470888
1713 2 0.500152 0.493791 0.470134
2227 2 0.512557 0.481715 0.471398
2228 2 0.50129 0.487679 0.47056
2226 2 0.507157 0.48499 0.470652
1715 2 0.517339 0.490458 0.470864
1718 2 0.511648 0.488192 0.470787
1714 2 0.517384 0.484238 0.471439
1708 2 0.505374 0.497227 0.470014
1712 2 0.510622 0.493702 0.470404
1716 2 0.506185 0.491213 0.470281
1702 2 0.516302 0.496822 0.470708
1703 2 0.510495 0.499804 0.470322
1717 2 0.523556 0.482696 0.472317
1707 2 0.521497 0.493814 0.471459
1711 2 0.522414 0.488035 0.471744
1700 2 0.526745 0.49734 0.471863
1705 2 0.528353 0.485789 0.472888
1706 2 0.527281 0.491701 0.472086
1699 2 0.532716 0.495649 0.472911
2321 2 0.532992 0.48951 0.473392
2322 2 0.534123 0.482596 0.474126
1686 2 0.537493 0.499826 0.473843
1692 2 0.5379 0.493241 0.473968
2323 2 0.537997 0.486759 0.474721
1412 2 0.548901 0.482591 0.478107
1693 2 0.542478 0.496707 0.475309
1684 2 0.548778 0.494837 0.477144
1421 2 0.543841 0.484481 0.476436
1223 2 0.554128 0.498388 0.479196
2245 2 0.548106 0.4886 0.477286
2325 2 0.543235 0.490724 0.475571
1638 2 0.553718 0.49267 0.479261
1413 2 0.553822 0.486656 0.479764
1224 2 0.449944 0.503217 0.477642
2216 2 0.448093 0.514137 0.479125
2217 2 0.447513 0.508212 0.478707
2032 2 0.453218 0.511521 0.476903
1760 2 0.455378 0.506194 0.476093
2029 2 0.458539 0.515773 0.475827
1761 2 0.459143 0.5104 0.475195
2033 2 0.452532 0.517814 0.47781
1764 2 0.460662 0.503717 0.474424
1757 2 0.466086 0.501203 0.473317
1747 2 0.477217 0.50303 0.471407
1758 2 0.475953 0.509472 0.471847
1763 2 0.464453 0.507559 0.473752
2218 2 0.469553 0.511231 0.473203
1753 2 0.470641 0.50518 0.472542
2025 2 0.464428 0.514048 0.474273
2219 2 0.47457 0.515129 0.47241
2020 2 0.469327 0.518288 0.473699
1754 2 0.480593 0.512688 0.47133
1743 2 0.480343 0.518815 0.471989
1741 2 0.482519 0.500099 0.470989
1748 2 0.481974 0.50655 0.470957
1742 2 0.487755 0.503367 0.470198
1725 2 0.498941 0.511676 0.470402
1726 2 0.492133 0.513375 0.470627
1733 2 0.493557 0.50226 0.470081
1734 2 0.492735 0.507612 0.470118
1749 2 0.487262 0.509667 0.470701
1735 2 0.485699 0.515118 0.471071
2232 2 0.497044 0.517365 0.470916
1724 2 0.498574 0.505578 0.469951
1727 2 0.490363 0.519185 0.471135
1709 2 0.503608 0.502763 0.470088
2231 2 0.503745 0.514674 0.470743
1697 2 0.50941 0.505555 0.470249
1704 2 0.509526 0.511201 0.470493
2230 2 0.503901 0.508998 0.470094
1689 2 0.514916 0.508836 0.470599
1696 2 0.515615 0.50247 0.470659
1682 2 0.514312 0.51496 0.471191
1698 2 0.508923 0.517089 0.470897
1690 2 0.519764 0.517775 0.471936
1701 2 0.521417 0.500302 0.471226
1681 2 0.520416 0.51232 0.471453
1694 2 0.531345 0.501848 0.472683
1679 2 0.53078 0.513785 0.473102
1687 2 0.532462 0.507609 0.472875
1688 2 0.520689 0.506334 0.47125
1695 2 0.526302 0.504005 0.471896
1680 2 0.525998 0.50981 0.472031
2239 2 0.525501 0.516268 0.472421
2241 2 0.536683 0.511479 0.474223
1969 2 0.536228 0.517329 0.474689
1678 2 0.537456 0.506047 0.47414
2324 2 0.548665 0.500155 0.477061
1685 2 0.543318 0.503102 0.475473
1677 2 0.543021 0.509215 0.475561
1954 2 0.541923 0.515556 0.47585
1676 2 0.548164 0.506126 0.476937
2242 2 0.547613 0.513675 0.477381
2243 2 0.552683 0.510859 0.479272
1941 2 0.551808 0.517414 0.479497
2155 2 0.552838 0.50413 0.478918
2034 2 0.447594 0.520896 0.480317
2212 2 0.451354 0.524521 0.479265
2031 2 0.456418 0.527479 0.478176
2030 2 0.457643 0.521729 0.476884
2028 2 0.456464 0.53332 0.479438
2026 2 0.46303 0.51957 0.474988
2018 2 0.46154 0.537907 0.479274
2027 2 0.461873 0.531556 0.477328
2022 2 0.462332 0.525515 0.476167
2220 2 0.474868 0.520984 0.472992
2021 2 0.467652 0.524058 0.474489
2014 2 0.473706 0.527235 0.474053
2015 2 0.467496 0.529846 0.47573
2008 2 0.472904 0.532991 0.475308
2016 2 0.467184 0.535971 0.477146
2007 2 0.478824 0.531239 0.47396
2000 2 0.478954 0.536981 0.4752
2221 2 0.47879 0.52509 0.473011
1736 2 0.485302 0.520939 0.47179
2222 2 0.484086 0.52729 0.472756
1728 2 0.490433 0.525006 0.471928
2223 2 0.49004 0.530988 0.47285
2224 2 0.495558 0.528924 0.472407
1999 2 0.484729 0.53368 0.473809
1220 2 0.495222 0.534787 0.473401
2233 2 0.495946 0.523172 0.471471
2144 2 0.4897 0.537112 0.474327
2234 2 0.501432 0.531122 0.472652
1683 2 0.501724 0.525451 0.471835
1691 2 0.502084 0.520074 0.470878
2237 2 0.513909 0.521136 0.471837
2235 2 0.507235 0.528808 0.472335
2236 2 0.507434 0.522774 0.471627
1984 2 0.512734 0.52692 0.472494
1989 2 0.511491 0.532667 0.473503
2146 2 0.506056 0.534961 0.473617
1987 2 0.517403 0.530178 0.47331
1976 2 0.518977 0.523611 0.472632
1985 2 0.516106 0.536328 0.474443
2145 2 0.500504 0.537513 0.473922
2240 2 0.530916 0.519827 0.473916
2238 2 0.525112 0.522012 0.473159
1980 2 0.529187 0.526571 0.474361
1975 2 0.535064 0.524015 0.475056
1981 2 0.523009 0.534553 0.474883
1965 2 0.53163 0.535825 0.476892
1971 2 0.522847 0.527878 0.473724
1972 2 0.527518 0.532494 0.475487
1970 2 0.534126 0.530622 0.476178
1966 2 0.537307 0.538166 0.478884
1946 2 0.546264 0.520266 0.477574
1957 2 0.538975 0.53212 0.477874
1964 2 0.539768 0.527194 0.476895
1963 2 0.540821 0.521821 0.476366
1962 2 0.545804 0.526112 0.478664
1956 2 0.544378 0.532387 0.479585
1955 2 0.551675 0.523273 0.480344
2009 2 0.473016 0.538538 0.476417
2001 2 0.478197 0.542708 0.476947
2017 2 0.467432 0.541534 0.478746
2003 2 0.472874 0.544562 0.478396
2002 2 0.478088 0.548051 0.478858
2004 2 0.472826 0.550732 0.480462
1995 2 0.48395 0.551124 0.478822
1991 2 0.483799 0.54557 0.477039
1992 2 0.48411 0.539397 0.475221
2123 2 0.494967 0.540667 0.474701
1990 2 0.489957 0.542809 0.475471
2143 2 0.494876 0.547247 0.476687
2141 2 0.489583 0.549446 0.478061
2120 2 0.495367 0.553591 0.47916
1994 2 0.489192 0.555517 0.480129
2121 2 0.499711 0.550511 0.477865
2124 2 0.49943 0.543768 0.475627
2113 2 0.500452 0.557165 0.480387
1988 2 0.510639 0.539069 0.474761
2147 2 0.504989 0.541187 0.474987
2122 2 0.504423 0.547228 0.476833
1986 2 0.516391 0.541405 0.475991
2148 2 0.516586 0.547368 0.477508
2117 2 0.510589 0.550205 0.478014
2119 2 0.509992 0.545078 0.4763
2116 2 0.505802 0.553438 0.478891
2115 2 0.516709 0.552511 0.479447
2112 2 0.512128 0.555909 0.480526
1977 2 0.527585 0.540379 0.477056
1982 2 0.52195 0.540079 0.476132
2149 2 0.523007 0.550543 0.479979
1983 2 0.522343 0.545562 0.477923
1973 2 0.533666 0.542759 0.479009
1978 2 0.528162 0.546152 0.479117
1948 2 0.542467 0.538678 0.480452
1489 2 0.457863 0.4383 0.49637
2424 2 0.4522 0.442269 0.497454
1486 2 0.461801 0.441024 0.489307
1314 2 0.470876 0.433631 0.491705
2376 2 0.474616 0.437075 0.486991
2412 2 0.463815 0.435976 0.493357
1490 2 0.467887 0.438964 0.488143
1234 2 0.468056 0.431864 0.498535
1313 2 0.476997 0.431586 0.491607
1311 2 0.479292 0.440582 0.483439
1235 2 0.474056 0.429597 0.497467
1242 2 0.480397 0.427884 0.496846
2377 2 0.472503 0.442118 0.484279
1310 2 0.480687 0.43507 0.487229
1298 2 0.496152 0.441019 0.481506
1297 2 0.491365 0.436502 0.484257
1303 2 0.487467 0.4328 0.48737
1305 2 0.493681 0.431695 0.487759
1309 2 0.484073 0.429675 0.491371
2406 2 0.489389 0.427677 0.492962
1300 2 0.496223 0.427103 0.49272
1312 2 0.486873 0.425976 0.498674
1307 2 0.485268 0.438395 0.483852
2408 2 0.494926 0.42491 0.498284
1306 2 0.498369 0.435823 0.484398
1301 2 0.499805 0.430875 0.487934
1296 2 0.502123 0.44053 0.481847
1295 2 0.501778 0.425052 0.496795
1282 2 0.504704 0.433103 0.486637
1290 2 0.507118 0.437908 0.483332
1281 2 0.511432 0.434237 0.485771
1287 2 0.51483 0.427634 0.494434
1288 2 0.510369 0.430094 0.489533
1289 2 0.504057 0.427974 0.491191
1294 2 0.508879 0.425869 0.495801
1274 2 0.513299 0.440893 0.482213
1280 2 0.517717 0.431486 0.48986
1273 2 0.517813 0.436734 0.485548
2389 2 0.518942 0.442015 0.482457
2400 2 0.519003 0.427239 0.499985
1270 2 0.528257 0.43173 0.494975
1271 2 0.523509 0.433885 0.489192
1272 2 0.523816 0.439697 0.484945
1279 2 0.522122 0.429966 0.493643
2392 2 0.529148 0.436032 0.489569
2393 2 0.534239 0.434548 0.494312
2334 2 0.535109 0.439441 0.489123
1405 2 0.529992 0.441401 0.485387
2394 2 0.53804 0.434837 0.499674
1217 2 0.540299 0.438292 0.493744
1674 2 0.544655 0.439503 0.499891
1496 2 0.438738 0.459737 0.49339
2374 2 0.441972 0.45325 0.495675
1484 2 0.441782 0.461128 0.48887
2295 2 0.443691 0.455621 0.490444
1492 2 0.456192 0.442802 0.491135
1494 2 0.451425 0.446352 0.492347
1482 2 0.457259 0.45827 0.481732
1487 2 0.458639 0.452324 0.483681
1491 2 0.453404 0.453597 0.485557
1493 2 0.455369 0.448412 0.487594
2296 2 0.448652 0.45141 0.489422
2297 2 0.448697 0.457939 0.485889
1218 2 0.446186 0.448539 0.495803
1475 2 0.460542 0.447315 0.485422
1480 2 0.477582 0.446242 0.480891
1485 2 0.466124 0.444321 0.485015
2380 2 0.470833 0.447342 0.481892
1481 2 0.465632 0.450581 0.481945
1304 2 0.489588 0.442656 0.481111
1308 2 0.484024 0.443812 0.480984
1429 2 0.537011 0.45103 0.482721
1422 2 0.530747 0.44732 0.482688
2391 2 0.525451 0.444768 0.482271
1430 2 0.5361 0.445284 0.485206
1406 2 0.541171 0.44337 0.489177
1408 2 0.542616 0.45589 0.482563
1414 2 0.541534 0.447883 0.485836
1407 2 0.552334 0.451534 0.49026
1409 2 0.546917 0.452616 0.486109
2333 2 0.546582 0.442424 0.494227
1668 2 0.546936 0.447524 0.489509
2331 2 0.551638 0.457554 0.486267
2332 2 0.552229 0.447127 0.495242
1416 2 0.546612 0.459914 0.482853
1671 2 0.556535 0.451323 0.496323
1667 2 0.5571 0.456637 0.490736
1666 2 0.561158 0.457616 0.495792
1497 2 0.435679 0.465296 0.492936
1498 2 0.431897 0.468849 0.497495
2299 2 0.439762 0.467421 0.487555
1507 2 0.4349 0.470642 0.490577
1508 2 0.438881 0.47383 0.485843
1509 2 0.433551 0.476677 0.489353
1515 2 0.430391 0.474988 0.494739
1500 2 0.437532 0.480273 0.485217
1488 2 0.452165 0.462024 0.48256
1499 2 0.442902 0.47627 0.48277
2300 2 0.444103 0.47048 0.483851
2298 2 0.446061 0.464057 0.484825
1479 2 0.450625 0.467893 0.481612
2330 2 0.556066 0.462635 0.48662
1410 2 0.551474 0.463424 0.483607
1426 2 0.549272 0.469441 0.481052
1418 2 0.555667 0.469281 0.483767
1419 2 0.556188 0.474769 0.482881
1664 2 0.56135 0.461545 0.491215
2329 2 0.55942 0.467285 0.486893
1651 2 0.56451 0.468032 0.491377
1652 2 0.566488 0.474956 0.490266
1658 2 0.561489 0.473142 0.486522
1663 2 0.565537 0.463602 0.496417
1644 2 0.568805 0.471585 0.495959
1653 2 0.56278 0.478915 0.485566
1645 2 0.570582 0.477884 0.494409
2306 2 0.440357 0.4978 0.482121
1516 2 0.428977 0.482102 0.493079
1517 2 0.432994 0.483921 0.487918
1502 2 0.438121 0.48696 0.483789
1511 2 0.436824 0.493987 0.48404
1518 2 0.432489 0.490482 0.48753
1523 2 0.427949 0.488665 0.492184
1528 2 0.427927 0.494287 0.491563
1532 2 0.425079 0.493693 0.497885
1527 2 0.425915 0.486743 0.498478
2294 2 0.431983 0.497172 0.487235
1503 2 0.440842 0.491885 0.48145
2303 2 0.442577 0.483107 0.481869
1636 2 0.568163 0.481818 0.489759
2326 2 0.559117 0.49411 0.481652
1659 2 0.558604 0.481843 0.482732
2328 2 0.55981 0.488412 0.482549
2327 2 0.564073 0.484907 0.485415
1637 2 0.564717 0.491655 0.48502
1646 2 0.568668 0.488728 0.488732
2248 2 0.568852 0.496186 0.488125
1650 2 0.572206 0.484904 0.493915
2247 2 0.572897 0.491564 0.492704
1942 2 0.573479 0.4979 0.493052
2246 2 0.564098 0.497542 0.48444
1635 2 0.574867 0.493682 0.498397
1643 2 0.574119 0.487496 0.499674
1524 2 0.425122 0.501094 0.496697
2293 2 0.435536 0.501162 0.484669
1510 2 0.428545 0.501094 0.490718
2292 2 0.437927 0.507013 0.483435
1795 2 0.427646 0.507686 0.492506
1774 2 0.432713 0.511735 0.487287
2290 2 0.431784 0.505824 0.487436
2291 2 0.42894 0.514303 0.491746
1782 2 0.437367 0.513716 0.484543
1789 2 0.426045 0.513089 0.497958
1766 2 0.436605 0.519046 0.48571
2214 2 0.442014 0.504278 0.480985
2289 2 0.424982 0.506482 0.499957
1765 2 0.442339 0.510813 0.481294
2215 2 0.442983 0.517213 0.48161
2157 2 0.55714 0.514823 0.481469
1675 2 0.557681 0.508193 0.480771
2244 2 0.559022 0.501729 0.481375
1943 2 0.568152 0.501918 0.487338
1944 2 0.562785 0.504906 0.483852
1945 2 0.561721 0.511717 0.483805
1930 2 0.575203 0.500854 0.498173
1935 2 0.5723 0.504617 0.491663
1936 2 0.57099 0.510853 0.491249
1940 2 0.567146 0.507964 0.486841
1937 2 0.567126 0.514951 0.487907
2156 2 0.561983 0.518259 0.484846
1925 2 0.570884 0.517909 0.493101
1931 2 0.574429 0.507348 0.497027
1919 2 0.57322 0.513916 0.49667
1775 2 0.432091 0.520082 0.489687
1783 2 0.428475 0.520252 0.49594
1767 2 0.437059 0.525099 0.487048
1791 2 0.43227 0.526154 0.492023
1776 2 0.440868 0.53478 0.487862
1777 2 0.432513 0.531961 0.495997
1778 2 0.43657 0.536561 0.493046
1784 2 0.435892 0.530908 0.490129
1769 2 0.44128 0.529234 0.485187
1785 2 0.429361 0.525666 0.498997
2213 2 0.442064 0.522317 0.483152
1786 2 0.434331 0.537116 0.499583
1768 2 0.450856 0.531067 0.480982
2211 2 0.450991 0.536858 0.482674
1770 2 0.446179 0.5338 0.484049
2210 2 0.446301 0.527196 0.482056
2158 2 0.54894 0.529686 0.4808
1938 2 0.557334 0.521464 0.48253
1949 2 0.547919 0.53706 0.48241
2160 2 0.553671 0.533558 0.484021
1947 2 0.555336 0.527677 0.482714
2161 2 0.557791 0.536796 0.487779
1926 2 0.566286 0.521508 0.488571
1927 2 0.56932 0.524234 0.493318
1928 2 0.567315 0.530728 0.494833
1932 2 0.564855 0.528016 0.489681
1933 2 0.561136 0.525446 0.485711
2159 2 0.559507 0.531388 0.486313
1923 2 0.562698 0.534937 0.49088
1922 2 0.565548 0.536781 0.497499
1921 2 0.570962 0.525523 0.499777
1771 2 0.441021 0.541382 0.491393
1779 2 0.438296 0.542687 0.497749
2024 2 0.442784 0.547869 0.495477
2208 2 0.445799 0.539825 0.486652
2023 2 0.45598 0.539721 0.481449
2209 2 0.450945 0.542781 0.484957
2207 2 0.448011 0.550575 0.49205
2012 2 0.456829 0.545959 0.48361
2013 2 0.457306 0.55239 0.486823
2019 2 0.44606 0.545472 0.489535
2206 2 0.452232 0.549576 0.487625
1998 2 0.453743 0.554751 0.491086
2205 2 0.450223 0.555711 0.495864
1772 2 0.445324 0.551811 0.499652
2005 2 0.461516 0.556468 0.487442
2006 2 0.461766 0.550667 0.483563
2010 2 0.467455 0.547727 0.480861
2011 2 0.462132 0.54445 0.481198
1996 2 0.467521 0.553141 0.483209
2139 2 0.478338 0.553892 0.480939
2137 2 0.473122 0.556922 0.483506
2109 2 0.483507 0.557675 0.481838
1967 2 0.53396 0.547765 0.481366
1979 2 0.52919 0.552051 0.481677
1974 2 0.533532 0.554513 0.484068
2150 2 0.523488 0.555597 0.482116
1950 2 0.552586 0.539664 0.485616
1960 2 0.538588 0.551285 0.484498
1951 2 0.543756 0.549115 0.485206
1952 2 0.540675 0.555379 0.487903
1958 2 0.546363 0.54314 0.484024
1959 2 0.539892 0.54435 0.481763
2162 2 0.550788 0.545729 0.48759
2163 2 0.547638 0.551354 0.4893
1915 2 0.554137 0.548413 0.492343
1908 2 0.551552 0.553611 0.495314
1221 2 0.54506 0.556381 0.491659
1916 2 0.556594 0.543205 0.490489
1929 2 0.558713 0.546458 0.497515
1934 2 0.561279 0.541226 0.493963
2135 2 0.458214 0.559623 0.492307
2136 2 0.460906 0.563768 0.497403
1222 2 0.455271 0.56025 0.498308
2096 2 0.467329 0.558551 0.486516
1997 2 0.464775 0.56275 0.491042
2087 2 0.470926 0.566089 0.491794
2088 2 0.46667 0.567097 0.496469
2103 2 0.471681 0.562533 0.487532
2138 2 0.477918 0.560335 0.484425
2095 2 0.476193 0.569492 0.494017
2140 2 0.477569 0.565488 0.488301
2102 2 0.483082 0.569211 0.490331
2132 2 0.482342 0.572427 0.496522
1993 2 0.483038 0.563849 0.485408
2142 2 0.494645 0.559767 0.481826
2118 2 0.488241 0.561689 0.483538
2085 2 0.494435 0.574295 0.495414
2086 2 0.488635 0.571671 0.492328
2094 2 0.494381 0.570443 0.489506
2101 2 0.489157 0.567204 0.487133
2108 2 0.49406 0.564556 0.484854
2107 2 0.499703 0.567697 0.486826
2131 2 0.488692 0.57439 0.49914
2093 2 0.501482 0.575272 0.499354
2100 2 0.500188 0.572122 0.491706
2114 2 0.500235 0.562541 0.483282
2110 2 0.517876 0.558181 0.482382
2106 2 0.506433 0.558814 0.481727
2084 2 0.505767 0.573391 0.493805
2091 2 0.511552 0.571841 0.492485
2092 2 0.505833 0.569498 0.488535
2098 2 0.51233 0.56684 0.487181
2099 2 0.506381 0.564043 0.484485
2111 2 0.51238 0.561831 0.483625
2090 2 0.517439 0.569342 0.490697
2105 2 0.518017 0.563902 0.486072
2127 2 0.517025 0.573358 0.497615
2083 2 0.509755 0.574517 0.499321
2151 2 0.528327 0.557765 0.484598
1968 2 0.535406 0.559159 0.487981
2104 2 0.523794 0.566101 0.489283
1961 2 0.535122 0.564523 0.49363
2080 2 0.529337 0.566965 0.493217
2089 2 0.530044 0.563171 0.488861
2097 2 0.523845 0.570277 0.495168
2152 2 0.523885 0.56157 0.485515
1953 2 0.540566 0.561007 0.492905
2164 2 0.540351 0.563444 0.49953
2176 2 0.546457 0.558916 0.497315
2414 2 0.456976 0.43843 0.502625
1225 2 0.458872 0.441634 0.509271
2375 2 0.463175 0.434633 0.501181
1226 2 0.463001 0.437326 0.507417
1227 2 0.468559 0.434432 0.507391
2421 2 0.471734 0.430453 0.503229
1324 2 0.466301 0.440154 0.512504
2420 2 0.472429 0.437805 0.512685
1236 2 0.475798 0.432443 0.508962
1228 2 0.479351 0.43606 0.513326
2410 2 0.478557 0.428576 0.504314
2419 2 0.477283 0.441082 0.516241
1243 2 0.481815 0.431082 0.509686
1237 2 0.485867 0.435458 0.514196
1244 2 0.488884 0.429924 0.510054
1245 2 0.49285 0.433626 0.513685
1249 2 0.485123 0.427421 0.505123
1250 2 0.491443 0.426338 0.504201
1229 2 0.490959 0.439028 0.517083
2418 2 0.483821 0.440122 0.516916
1251 2 0.495065 0.428306 0.509202
1246 2 0.49683 0.437138 0.516415
1255 2 0.498779 0.425244 0.504136
1257 2 0.499386 0.431953 0.512696
2402 2 0.512697 0.425851 0.501731
2404 2 0.506583 0.425167 0.502897
1256 2 0.502418 0.427541 0.508227
1258 2 0.506003 0.431747 0.512682
1259 2 0.509186 0.436392 0.51539
1260 2 0.509611 0.428286 0.508197
1261 2 0.512275 0.431665 0.511771
1252 2 0.502651 0.436444 0.516166
1264 2 0.517273 0.429168 0.507034
2403 2 0.513651 0.439975 0.517376
1253 2 0.506754 0.441757 0.51856
1262 2 0.51641 0.434432 0.513413
1247 2 0.500858 0.441879 0.518996
1263 2 0.52017 0.439311 0.515797
2398 2 0.525523 0.429243 0.500441
2396 2 0.531832 0.431993 0.502219
1266 2 0.526021 0.43831 0.513506
1265 2 0.521624 0.433755 0.511456
1267 2 0.523922 0.430261 0.506222
1269 2 0.528504 0.433191 0.507888
1402 2 0.531776 0.439356 0.512321
2397 2 0.534651 0.435934 0.507237
1404 2 0.5391 0.440736 0.509795
2395 2 0.54032 0.437578 0.504642
1504 2 0.440647 0.456488 0.506051
1495 2 0.437908 0.457323 0.500019
2371 2 0.44251 0.459609 0.510777
1315 2 0.448164 0.445801 0.501784
2423 2 0.453123 0.442558 0.505461
1316 2 0.44853 0.448102 0.507031
1317 2 0.450602 0.452744 0.512862
1318 2 0.448715 0.458441 0.51434
1326 2 0.457349 0.452056 0.515328
2372 2 0.445889 0.453284 0.508995
2373 2 0.443097 0.451257 0.502551
2422 2 0.453662 0.447439 0.510919
1327 2 0.454397 0.456744 0.516646
1334 2 0.461025 0.455908 0.518496
1325 2 0.459921 0.446955 0.513859
1345 2 0.471564 0.443377 0.515822
1333 2 0.465384 0.445131 0.515129
1340 2 0.463739 0.450515 0.517454
1332 2 0.469644 0.449045 0.518397
1339 2 0.475517 0.446956 0.518939
1385 2 0.518354 0.44428 0.518533
1268 2 0.530652 0.444577 0.516287
2399 2 0.536284 0.444217 0.513859
1395 2 0.534747 0.44964 0.517448
1390 2 0.524518 0.444096 0.517578
2401 2 0.529003 0.449969 0.519122
1397 2 0.538393 0.455967 0.518807
2336 2 0.550414 0.444139 0.500617
1400 2 0.542944 0.444839 0.511183
1673 2 0.554872 0.448897 0.502502
2335 2 0.546331 0.442712 0.506246
1398 2 0.54405 0.454492 0.516255
1403 2 0.540157 0.450036 0.515603
1672 2 0.550559 0.448009 0.507966
2337 2 0.546321 0.44976 0.512387
2338 2 0.550416 0.45351 0.512495
1669 2 0.55566 0.452803 0.507498
1394 2 0.554726 0.458351 0.512131
1393 2 0.548801 0.459195 0.515951
1392 2 0.542427 0.460301 0.518927
1670 2 0.559326 0.454245 0.502433
1661 2 0.560076 0.458797 0.507657
1662 2 0.564143 0.461022 0.502365
1505 2 0.434634 0.462661 0.500489
1521 2 0.427368 0.479715 0.500239
1512 2 0.437538 0.462296 0.507294
1506 2 0.429614 0.473272 0.501727
1513 2 0.433089 0.46732 0.504625
1514 2 0.436507 0.468459 0.509962
1520 2 0.432405 0.472985 0.508056
1525 2 0.439604 0.472989 0.514262
1534 2 0.440596 0.478191 0.516266
1526 2 0.434696 0.47675 0.511793
1522 2 0.429968 0.47924 0.506727
1519 2 0.44149 0.466651 0.513216
1319 2 0.452427 0.462565 0.517705
1530 2 0.445925 0.476017 0.518404
2370 2 0.44625 0.463439 0.515161
2368 2 0.444769 0.470378 0.516883
2369 2 0.450638 0.468387 0.518948
2341 2 0.552519 0.464693 0.516131
1383 2 0.553726 0.474344 0.518456
2339 2 0.556668 0.469674 0.515506
2340 2 0.549771 0.469846 0.518966
1654 2 0.556747 0.480752 0.518318
1401 2 0.54613 0.465307 0.518928
1665 2 0.558482 0.464533 0.512515
1649 2 0.570548 0.47413 0.502106
1657 2 0.567578 0.46704 0.502689
1648 2 0.564907 0.476671 0.511954
1655 2 0.562972 0.464808 0.508701
1656 2 0.5624 0.470797 0.512312
1660 2 0.559005 0.475216 0.51575
1641 2 0.566817 0.472061 0.507798
1634 2 0.569559 0.478519 0.507319
1642 2 0.572642 0.480621 0.500883
1529 2 0.425038 0.498938 0.502963
1531 2 0.429335 0.490471 0.509633
2367 2 0.431693 0.483999 0.510867
1535 2 0.437803 0.493902 0.516671
1536 2 0.425726 0.491444 0.503952
1537 2 0.427702 0.485282 0.505813
1538 2 0.434036 0.489802 0.513864
1321 2 0.436418 0.483378 0.514514
2285 2 0.439986 0.488548 0.517462
1533 2 0.432518 0.496411 0.513181
2288 2 0.428109 0.497019 0.508687
1539 2 0.442289 0.483176 0.518281
1809 2 0.441335 0.498641 0.518669
1647 2 0.562007 0.481325 0.515208
1630 2 0.557968 0.48668 0.518368
2249 2 0.573318 0.492108 0.505747
1632 2 0.571795 0.485172 0.506549
1633 2 0.568909 0.489012 0.51094
1640 2 0.566826 0.482842 0.51192
2252 2 0.563527 0.487657 0.514987
2253 2 0.565782 0.494386 0.514627
2343 2 0.559869 0.492755 0.517952
1900 2 0.570151 0.495673 0.510616
1939 2 0.574337 0.49893 0.504923
2344 2 0.561208 0.499235 0.517393
2286 2 0.43629 0.500645 0.515868
1796 2 0.427178 0.517958 0.50236
1790 2 0.426552 0.511261 0.504651
2287 2 0.435411 0.507819 0.515097
1800 2 0.427365 0.504565 0.507418
1804 2 0.431617 0.503304 0.512363
1805 2 0.430339 0.510297 0.510349
1807 2 0.439996 0.50555 0.517824
1808 2 0.439722 0.511647 0.51709
1802 2 0.434763 0.513784 0.513804
1801 2 0.429746 0.51626 0.508721
1812 2 0.438658 0.518471 0.515629
1811 2 0.444075 0.515117 0.51899
1 1 0.5 0.5 0.5
2 1 0.5 0.5 0.5
3 1 0.5 0.5 0.5
4 1 0.5 0.5 0.5
5 1 0.5 0.5 0.5
6 1 0.5 0.5 0.5
7 1 0.5 0.5 0.5
8 1 0.5 0.5 0.5
9 1 0.5 0.5 0.5
10 1 0.5 0.5 0.5
11 1 0.5 0.5 0.5
12 1 0.5 0.5 0.5
13 1 0.5 0.5 0.5
14 1 0.5 0.5 0.5
15 1 0.5 0.5 0.5
16 1 0.5 0.5 0.5
17 1 0.5 0.5 0.5
18 1 0.5 0.5 0.5
19 1 0.5 0.5 0.5
20 1 0.5 0.5 0.5
21 1 0.5 0.5 0.5
22 1 0.5 0.5 0.5
23 1 0.5 0.5 0.5
24 1 0.5 0.5 0.5
25 1 0.5 0.5 0.5
26 1 0.5 0.5 0.5
27 1 0.5 0.5 0.5
28 1 0.5 0.5 0.5
29 1 0.5 0.5 0.5
30 1 0.5 0.5 0.5
31 1 0.5 0.5 0.5
32 1 0.5 0.5 0.5
33 1 0.5 0.5 0.5
34 1 0.5 0.5 0.5
35 1 0.5 0.5 0.5
36 1 0.5 0.5 0.5
37 1 0.5 0.5 0.5
38 1 0.5 0.5 0.5
39 1 0.5 0.5 0.5
40 1 0.5 0.5 0.5
41 1 0.5 0.5 0.5
42 1 0.5 0.5 0.5
43 1 0.5 0.5 0.5
44 1 0.5 0.5 0.5
45 1 0.5 0.5 0.5
46 1 0.5 0.5 0.5
47 1 0.5 0.5 0.5
48 1 0.5 0.5 0.5
49 1 0.5 0.5 0.5
50 1 0.5 0.5 0.5
51 1 0.5 0.5 0.5
52 1 0.5 0.5 0.5
53 1 0.5 0.5 0.5
54 1 0.5 0.5 0.5
55 1 0.5 0.5 0.5
56 1 0.5 0.5 0.5
57 1 0.5 0.5 0.5
58 1 0.5 0.5 0.5
59 1 0.5 0.5 0.5
60 1 0.5 0.5 0.5
61 1 0.5 0.5 0.5
62 1 0.5 0.5 0.5
63 1 0.5 0.5 0.5
64 1 0.5 0.5 0.5
65 1 0.5 0.5 0.5
66 1 0.5 0.5 0.5
67 1 0.5 0.5 0.5
68 1 0.5 0.5 0.5
69 1 0.5 0.5 0.5
70 1 0.5 0.5 0.5
71 1 0.5 0.5 0.5
72 1 0.5 0.5 0.5
73 1 0.5 0.5 0.5
74 1 0.5 0.5 0.5
75 1 0.5 0.5 0.5
76 1 0.5 0.5 0.5
77 1 0.5 0.5 0.5
78 1 0.5 0.5 0.5
79 1 0.5 0.5 0.5
80 1 0.5 0.5 0.5
81 1 0.5 0.5 0.5
82 1 0.5 0.5 0.5
83 1 0.5 0.5 0.5
84 1 0.5 0.5 0.5
85 1 0.5 0.5 0.5
86 1 0.5 0.5 0.5
87 1 0.5 0.5 0.5
88 1 0.5 0.5 0.5
89 1 0.5 0.5 0.5
90 1 0.5 0.5 0.5
91 1 0.5 0.5 0.5
92 1 0.5 0.5 0.5
93 1 0.5 0.5 0.5
94 1 0.5 0.5 0.5
95 1 0.5 0.5 0.5
96 1 0.5 0.5 0.5
97 1 0.5 0.5 0.5
98 1 0.5 0.5 0.5
99 1 0.5 0.5 0.5
100 1 0.5 0.5 0.5
101 1 0.5 0.5 0.5
102 1 0.5 0.5 0.5
103 1 0.5 0.5 0.5
104 1 0.5 0.5 0.5
105 1 0.5 0.5 0.5
106 1 0.5 0.5 0.5
107 1 0.5 0.5 0.5
108 1 0.5 0.5 0.5
109 1 0.5 0.5 0.5
110 1 0.5 0.5 0.5
111 1 0.5 0.5 0.5
112 1 0.5 0.5 0.5
113 1 0.5 0.5 0.5
114 1 0.5 0.5 0.5
115 1 0.5 0.5 0.5
116 1 0.5 0.5 0.5
117 1 0.5 0.5 0.5
118 1 0.5 0.5 0.5
119 1 0.5 0.5 0.5
120 1 0.5 0.5 0.5
121 1 0.5 0.5 0.5
122 1 0.5 0.5 0.5
123 1 0.5 0.5 0.5
124 1 0.5 0.5 0.5
125 1 0.5 0.5 0.5
126 1 0.5 0.5 0.5
127 1 0.5 0.5 0.5
128 1 0.5 0.5 0.5
129 1 0.5 0.5 0.5
130 1 0.5 0.5 0.5
131 1 0.5 0.5 0.5
132 1 0.5 0.5 0.5
133 1 0.5 0.5 0.5
134 1 0.5 0.5 0.5
135 1 0.5 0.5 0.5
136 1 0.5 0.5 0.5
137 1 0.5 0.5 0.5
138 1 0.5 0.5 0.5
139 1 0.5 0.5 0.5
140 1 0.5 0.5 0.5
141 1 0.5 0.5 0.5
142 1 0.5 0.5 0.5
143 1 0.5 0.5 0.5
144 1 0.5 0.5 0.5
145 1 0.5 0.5 0.5
146 1 0.5 0.5 0.5
147 1 0.5 0.5 0.5
148 1 0.5 0.5 0.5
149 1 0.5 0.5 0.5
150 1 0.5 0.5 0.5
151 1 0.5 0.5 0.5
152 1 0.5 0.5 0.5
153 1 0.5 0.5 0.5
154 1 0.5 0.5 0.5
155 1 0.5 0.5 0.5
156 1 0.5 0.5 0.5
157 1 0.5 0.5 0.5
158 1 0.5 0.5 0.5
159 1 0.5 0.5 0.5
160 1 0.5 0.5 0.5
161 1 0.5 0.5 0.5
162 1 0.5 0.5 0.5
163 1 0.5 0.5 0.5
164 1 0.5 0.5 0.5
165 1 0.5 0.5 0.5
166 1 0.5 0.5 0.5
167 1 0.5 0.5 0.5
168 1 0.5 0.5 0.5
169 1 0.5 0.5 0.5
170 1 0.5 0.5 0.5
171 1 0.5 0.5 0.5
172 1 0.5 0.5 0.5
173 1 0.5 0.5 0.5
174 1 0.5 0.5 0.5
175 1 0.5 0.5 0.5
176 1 0.5 0.5 0.5
177 1 0.5 0.5 0.5
178 1 0.5 0.5 0.5
179 1 0.5 0.5 0.5
180 1 0.5 0.5 0.5
181 1 0.5 0.5 0.5
182 1 0.5 0.5 0.5
183 1 0.5 0.5 0.5
184 1 0.5 0.5 0.5
185 1 0.5 0.5 0.5
186 1 0.5 0.5 0.5
187 1 0.5 0.5 0.5
188 1 0.5 0.5 0.5
189 1 0.5 0.5 0.5
190 1 0.5 0.5 0.5
191 1 0.5 0.5 0.5
192 1 0.5 0.5 0.5
193 1 0.5 0.5 0.5
194 1 0.5 0.5 0.5
195 1 0.5 0.5 0.5
196 1 0.5 0.5 0.5
197 1 0.5 0.5 0.5
198 1 0.5 0.5 0.5
199 1 0.5 0.5 0.5
200 1 0.5 0.5 0.5
201 1 0.5 0.5 0.5
202 1 0.5 0.5 0.5
203 1 0.5 0.5 0.5
204 1 0.5 0.5 0.5
205 1 0.5 0.5 0.5
206 1 0.5 0.5 0.5
207 1 0.5 0.5 0.5
208 1 0.5 0.5 0.5
209 1 0.5 0.5 0.5
210 1 0.5 0.5 0.5
211 1 0.5 0.5 0.5
212 1 0.5 0.5 0.5
213 1 0.5 0.5 0.5
214 1 0.5 0.5 0.5
215 1 0.5 0.5 0.5
216 1 0.5 0.5 0.5
217 1 0.5 0.5 0.5
218 1 0.5 0.5 0.5
219 1 0.5 0.5 0.5
220 1 0.5 0.5 0.5
221 1 0.5 0.5 0.5
222 1 0.5 0.5 0.5
223 1 0.5 0.5 0.5
224 1 0.5 0.5 0.5
225 1 0.5 0.5 0.5
226 1 0.5 0.5 0.5
227 1 0.5 0.5 0.5