ITEM: TIMESTEP
500000
ITEM: NUMBER OF ATOMS
2424
ITEM: BOX BOUNDS pp pp pp
-50 50
-50 50
-50 50
ITEM: ATOMS id type xs ys zs
1722 2 0.498801 0.491765 0.441859
1731 2 0.494271 0.496543 0.441859
1723 2 0.499666 0.499158 0.441324
2229 2 0.50429 0.495775 0.441723
1713 2 0.509703 0.494163 0.442287
1724 2 0.494388 0.502829 0.441773
1725 2 0.495696 0.509127 0.44229
1709 2 0.506638 0.501066 0.441763
2230 2 0.50077 0.504997 0.441655
1698 2 0.506642 0.507024 0.441915
1468 2 0.475032 0.460953 0.461415
1467 2 0.481902 0.457797 0.460877
1450 2 0.49277 0.458425 0.457468
2383 2 0.499163 0.457375 0.457677
2382 2 0.487201 0.455428 0.461264
1459 2 0.486155 0.46047 0.457044
1440 2 0.509181 0.459775 0.45664
1276 2 0.504962 0.455763 0.459553
2386 2 0.514857 0.459089 0.458682
1277 2 0.503237 0.461197 0.454722
1444 2 0.521625 0.460557 0.459979
1460 2 0.478949 0.46349 0.457441
1469 2 0.473848 0.467436 0.45708
1453 2 0.476629 0.474832 0.451233
1454 2 0.471014 0.479163 0.452388
1462 2 0.471903 0.473049 0.45446
1463 2 0.466292 0.475854 0.456973
1461 2 0.478344 0.469112 0.453927
1470 2 0.468026 0.470138 0.459087
1471 2 0.461769 0.473952 0.461322
2310 2 0.476348 0.480582 0.449141
2311 2 0.481868 0.477513 0.448153
2384 2 0.49676 0.462014 0.453842
1452 2 0.483021 0.471534 0.450644
2313 2 0.490874 0.46366 0.453381
1451 2 0.483901 0.465504 0.453923
1720 2 0.487195 0.475006 0.447888
1729 2 0.488507 0.468637 0.450628
2314 2 0.494723 0.467717 0.450404
2225 2 0.493287 0.472845 0.447991
2226 2 0.493694 0.478471 0.445524
1213 2 0.499327 0.473385 0.447301
1719 2 0.499282 0.479505 0.444553
1278 2 0.500612 0.46707 0.450579
2385 2 0.50701 0.464888 0.452346
1447 2 0.511294 0.469306 0.450362
1449 2 0.510616 0.474615 0.447501
2315 2 0.505181 0.470646 0.448946
2316 2 0.505343 0.476596 0.445817
1448 2 0.516934 0.473456 0.449701
1435 2 0.512521 0.463866 0.454349
2317 2 0.516358 0.478696 0.447445
1441 2 0.51694 0.467845 0.452506
1438 2 0.518655 0.464072 0.455979
2390 2 0.522271 0.4708 0.45297
2319 2 0.527296 0.475839 0.452602
2318 2 0.522259 0.477454 0.449896
1434 2 0.532459 0.473 0.457538
1428 2 0.537266 0.477195 0.458868
2387 2 0.527055 0.47002 0.455489
1439 2 0.532254 0.479202 0.454395
1445 2 0.524918 0.465355 0.457835
1432 2 0.531343 0.46725 0.460496
1464 2 0.461113 0.480974 0.458577
1456 2 0.460444 0.486707 0.456758
2306 2 0.457727 0.497116 0.457418
2307 2 0.461271 0.492171 0.455414
1457 2 0.455881 0.490858 0.460252
2305 2 0.45353 0.498973 0.461537
1759 2 0.461847 0.499452 0.454022
1455 2 0.465917 0.481963 0.454652
2309 2 0.470317 0.485509 0.450614
2308 2 0.465415 0.488535 0.452663
1750 2 0.474946 0.487442 0.447815
1751 2 0.475821 0.494342 0.446404
1755 2 0.470406 0.491984 0.449172
1756 2 0.46543 0.49558 0.451586
1760 2 0.471015 0.498225 0.448213
1730 2 0.492908 0.490085 0.442575
1745 2 0.48078 0.490019 0.445258
1739 2 0.482174 0.496313 0.444033
1744 2 0.481525 0.483257 0.446266
2312 2 0.487636 0.48078 0.445608
2227 2 0.498417 0.485427 0.443187
1721 2 0.49218 0.484532 0.443746
1737 2 0.485925 0.486492 0.44443
1738 2 0.48779 0.492329 0.442889
1733 2 0.488049 0.497779 0.442723
2228 2 0.504259 0.488998 0.442621
1717 2 0.510126 0.481017 0.445111
1708 2 0.513338 0.498425 0.442672
1718 2 0.50489 0.483366 0.443781
1716 2 0.510626 0.487923 0.443455
1712 2 0.515664 0.492224 0.44385
1715 2 0.515783 0.484679 0.445104
1710 2 0.527886 0.482155 0.450802
1707 2 0.520183 0.495693 0.444934
1714 2 0.521949 0.482848 0.447677
1711 2 0.520464 0.488807 0.4459
2321 2 0.537592 0.483651 0.456276
2320 2 0.532716 0.485385 0.452372
1693 2 0.535346 0.496087 0.45238
1699 2 0.531564 0.491278 0.450321
1705 2 0.526502 0.487573 0.448368
1706 2 0.52584 0.493517 0.447117
1692 2 0.537317 0.489732 0.454502
1700 2 0.529875 0.497903 0.448841
1421 2 0.541759 0.480967 0.461161
1684 2 0.541005 0.493439 0.456809
2322 2 0.541604 0.48653 0.45883
2323 2 0.544339 0.498653 0.45941
2324 2 0.545374 0.491472 0.461355
1764 2 0.45823 0.503107 0.456983
2029 2 0.458678 0.509956 0.457735
2032 2 0.461082 0.517086 0.457786
2217 2 0.454662 0.506314 0.461089
1746 2 0.47692 0.500634 0.445639
2030 2 0.462498 0.506645 0.454032
1762 2 0.466936 0.502554 0.450915
2218 2 0.46408 0.513337 0.45427
1752 2 0.477391 0.507468 0.445868
1763 2 0.467733 0.508747 0.450767
1757 2 0.47207 0.504696 0.447892
1753 2 0.47269 0.511523 0.448592
1754 2 0.475848 0.518137 0.448939
1761 2 0.469414 0.515868 0.45147
1748 2 0.479049 0.514075 0.446465
1732 2 0.482636 0.502393 0.443682
2231 2 0.488074 0.504154 0.442577
1740 2 0.489813 0.509803 0.442805
1747 2 0.483591 0.50939 0.444372
1741 2 0.485583 0.515509 0.445018
1690 2 0.491634 0.516157 0.443752
1691 2 0.497302 0.516483 0.44363
1704 2 0.50147 0.511009 0.442336
1681 2 0.503601 0.516725 0.443456
1703 2 0.51251 0.504357 0.442759
1697 2 0.511647 0.510515 0.443221
1727 2 0.50885 0.515748 0.44399
1682 2 0.515442 0.515006 0.444998
1696 2 0.517593 0.508531 0.444099
1702 2 0.518992 0.501859 0.444301
1701 2 0.524847 0.500588 0.44632
1694 2 0.53484 0.502369 0.45172
1689 2 0.521599 0.513811 0.446721
1688 2 0.522974 0.506951 0.446203
1679 2 0.531051 0.514646 0.451335
1686 2 0.533018 0.508246 0.4513
1687 2 0.527242 0.510994 0.448664
1695 2 0.528644 0.50493 0.44836
1678 2 0.536835 0.512639 0.454756
1680 2 0.525319 0.517768 0.449308
2241 2 0.534359 0.519024 0.45485
1685 2 0.539593 0.500065 0.455083
1677 2 0.538797 0.506255 0.454924
1954 2 0.540088 0.517165 0.458632
2242 2 0.541524 0.510774 0.458016
1676 2 0.543811 0.504977 0.459207
2219 2 0.466562 0.519482 0.454679
2025 2 0.463121 0.523525 0.459039
2020 2 0.472313 0.521646 0.451877
1758 2 0.478026 0.524216 0.450253
2220 2 0.474035 0.528323 0.454152
2026 2 0.468975 0.525991 0.455955
2014 2 0.471721 0.532071 0.458244
2015 2 0.478285 0.533865 0.455925
2016 2 0.465631 0.529277 0.460337
2008 2 0.474372 0.536989 0.45992
2221 2 0.480755 0.53001 0.452188
1749 2 0.482269 0.520352 0.447346
1734 2 0.488276 0.521436 0.446143
1735 2 0.494766 0.522303 0.445562
2007 2 0.484397 0.535361 0.454576
1743 2 0.48411 0.526204 0.449292
1742 2 0.491063 0.526767 0.447853
1736 2 0.488045 0.530805 0.450635
1999 2 0.490276 0.536367 0.4537
2222 2 0.494477 0.532915 0.450647
2232 2 0.497544 0.52818 0.448099
1220 2 0.496862 0.537691 0.453903
1726 2 0.50076 0.522982 0.44571
2223 2 0.500685 0.533709 0.450867
2237 2 0.51304 0.520981 0.446249
2224 2 0.5068 0.522423 0.445725
1728 2 0.503528 0.528328 0.448015
2233 2 0.509871 0.527004 0.447981
1683 2 0.507061 0.532735 0.450967
2235 2 0.510942 0.537194 0.454493
2236 2 0.513859 0.531558 0.451303
2234 2 0.50418 0.537605 0.453687
1984 2 0.516027 0.525865 0.449097
1989 2 0.517966 0.534807 0.454706
2238 2 0.519171 0.51931 0.447466
1987 2 0.519853 0.529398 0.452145
2240 2 0.529366 0.521084 0.452546
2239 2 0.522791 0.524133 0.450645
1976 2 0.530365 0.530888 0.458417
1980 2 0.532525 0.525308 0.456655
1981 2 0.526427 0.527029 0.454016
1985 2 0.524256 0.532636 0.456073
1982 2 0.527289 0.53602 0.460342
1975 2 0.536345 0.528441 0.461304
1969 2 0.538353 0.522799 0.459898
1988 2 0.521672 0.538118 0.458771
2000 2 0.480913 0.539427 0.458947
1990 2 0.487139 0.54066 0.457666
2144 2 0.4932 0.541787 0.457447
2143 2 0.497501 0.545869 0.4612
2124 2 0.500008 0.542178 0.457142
2146 2 0.514607 0.540159 0.457791
2145 2 0.506801 0.54183 0.457312
2123 2 0.503974 0.546036 0.461101
2122 2 0.511499 0.544356 0.460956
1311 2 0.459375 0.459653 0.478732
1474 2 0.471784 0.458895 0.465979
1480 2 0.473396 0.454602 0.469608
1485 2 0.467656 0.457552 0.470876
1489 2 0.464297 0.456722 0.47627
2378 2 0.47577 0.449883 0.474925
2380 2 0.477589 0.456003 0.464954
2379 2 0.479089 0.451095 0.470633
2375 2 0.470031 0.453034 0.474569
1494 2 0.472355 0.449343 0.48013
1486 2 0.4621 0.461321 0.472026
1492 2 0.466451 0.452959 0.479832
1308 2 0.481727 0.447031 0.475983
1293 2 0.494136 0.453846 0.461706
1296 2 0.493231 0.444194 0.476261
1298 2 0.491305 0.447888 0.470205
1299 2 0.489987 0.451704 0.465384
1304 2 0.484884 0.448866 0.470864
2381 2 0.483553 0.452874 0.465832
1303 2 0.487932 0.445354 0.475749
1292 2 0.496019 0.450063 0.46611
1297 2 0.4971 0.446241 0.47158
1290 2 0.499883 0.44326 0.477551
2391 2 0.511553 0.455257 0.461614
1286 2 0.500295 0.452622 0.46241
1275 2 0.517607 0.455315 0.463316
2388 2 0.512677 0.451202 0.466724
1291 2 0.501976 0.44861 0.467893
1274 2 0.509814 0.445317 0.475199
1283 2 0.503283 0.445224 0.473877
1284 2 0.507409 0.447676 0.469914
1285 2 0.506497 0.451155 0.464872
2389 2 0.514653 0.447931 0.471945
1273 2 0.516985 0.445734 0.477527
1282 2 0.506051 0.442619 0.479953
1429 2 0.519053 0.451877 0.468728
1422 2 0.521495 0.449743 0.47342
1431 2 0.525228 0.453608 0.470048
1424 2 0.531295 0.454983 0.473289
1436 2 0.529846 0.458512 0.467468
1442 2 0.523771 0.457099 0.464814
1416 2 0.537288 0.458056 0.476199
1430 2 0.527656 0.451126 0.476187
1423 2 0.534147 0.453752 0.478891
2392 2 0.523315 0.447291 0.479157
1433 2 0.534273 0.459943 0.470002
1487 2 0.456807 0.464526 0.475294
1472 2 0.457337 0.478124 0.463232
1478 2 0.454128 0.475885 0.4684
1483 2 0.455271 0.469974 0.471887
1484 2 0.451566 0.473657 0.474107
1477 2 0.458903 0.471234 0.466234
1482 2 0.460046 0.466485 0.468948
1488 2 0.452483 0.468407 0.478054
2300 2 0.447054 0.478179 0.478239
1479 2 0.449772 0.479388 0.472421
2299 2 0.448841 0.472746 0.480346
1476 2 0.463987 0.468059 0.463733
1481 2 0.465819 0.462287 0.46697
1475 2 0.469607 0.464522 0.461803
1443 2 0.536488 0.470476 0.462037
1437 2 0.528129 0.461894 0.462391
1446 2 0.534123 0.46415 0.465101
1417 2 0.541618 0.462154 0.476413
1425 2 0.538762 0.463183 0.471334
1426 2 0.539292 0.467764 0.466889
1427 2 0.54101 0.473992 0.463924
1410 2 0.547475 0.47075 0.475162
1418 2 0.543329 0.467371 0.47254
1419 2 0.544681 0.47291 0.469379
2328 2 0.551563 0.476007 0.477793
1409 2 0.546361 0.466433 0.478801
1411 2 0.548587 0.477075 0.471458
1420 2 0.5455 0.478814 0.465906
1465 2 0.456381 0.484485 0.461852
1502 2 0.443136 0.495389 0.478056
1473 2 0.452757 0.48129 0.467042
2301 2 0.446157 0.484224 0.476357
2302 2 0.448311 0.486183 0.471089
1466 2 0.452195 0.487491 0.465158
1458 2 0.452147 0.493686 0.463804
1503 2 0.445742 0.49713 0.472514
2303 2 0.448406 0.491597 0.469228
1501 2 0.445408 0.490442 0.474714
2304 2 0.449161 0.497868 0.46695
1509 2 0.443049 0.489104 0.480246
2327 2 0.552047 0.481225 0.474351
1412 2 0.549309 0.483396 0.46888
1413 2 0.545829 0.485531 0.463473
1675 2 0.54834 0.496851 0.46394
2326 2 0.552405 0.4876 0.471829
1944 2 0.55495 0.492406 0.474816
1646 2 0.554851 0.4861 0.477365
1223 2 0.549345 0.490442 0.466257
2246 2 0.552075 0.494429 0.469382
2247 2 0.557199 0.497125 0.478498
1637 2 0.554592 0.499413 0.473273
2216 2 0.455658 0.513975 0.461757
2293 2 0.443815 0.502019 0.476526
2294 2 0.446775 0.503043 0.47104
2215 2 0.451442 0.510001 0.465153
2034 2 0.450504 0.503748 0.465719
2213 2 0.449372 0.514717 0.469518
1224 2 0.447766 0.508853 0.470095
1765 2 0.444226 0.508323 0.476521
1766 2 0.446344 0.514018 0.474849
2033 2 0.453615 0.518014 0.465667
1767 2 0.445163 0.518897 0.48022
1775 2 0.44351 0.512871 0.480665
2155 2 0.546545 0.509293 0.462729
2325 2 0.551589 0.500712 0.467994
1945 2 0.544599 0.515071 0.462278
2157 2 0.555806 0.509094 0.476946
2243 2 0.548205 0.503327 0.463832
1942 2 0.553752 0.505787 0.472329
2244 2 0.552103 0.512618 0.471396
2245 2 0.55399 0.516251 0.476223
1946 2 0.550405 0.508021 0.467446
2156 2 0.55724 0.502893 0.478772
1955 2 0.54831 0.515496 0.466801
2027 2 0.458216 0.520498 0.461756
2214 2 0.448322 0.519611 0.47459
2212 2 0.451633 0.521425 0.470135
2022 2 0.451915 0.529999 0.477589
2023 2 0.456944 0.529369 0.469102
2031 2 0.455864 0.524516 0.466592
2210 2 0.455843 0.532943 0.474183
2024 2 0.452307 0.52681 0.4732
2028 2 0.460251 0.534848 0.469902
2012 2 0.459281 0.537975 0.475272
2211 2 0.448281 0.524768 0.478255
2018 2 0.460263 0.527385 0.463387
2021 2 0.468954 0.535853 0.462901
2001 2 0.463187 0.532523 0.464912
1977 2 0.533451 0.533921 0.463028
1971 2 0.535845 0.537304 0.468413
1970 2 0.539073 0.531712 0.466369
1962 2 0.543193 0.520596 0.463508
1947 2 0.550031 0.519537 0.471753
1963 2 0.541468 0.526687 0.465073
1965 2 0.541541 0.534564 0.472086
1948 2 0.548696 0.525739 0.473896
1956 2 0.546729 0.522466 0.468659
1957 2 0.545924 0.531327 0.475027
1964 2 0.544126 0.528739 0.47008
2158 2 0.552506 0.521606 0.477629
2159 2 0.550062 0.528529 0.4794
1958 2 0.544244 0.536085 0.478107
2019 2 0.457071 0.538606 0.48059
2009 2 0.466088 0.538581 0.467488
1998 2 0.462194 0.543059 0.478958
1992 2 0.477497 0.542443 0.46309
2017 2 0.464263 0.540835 0.47262
2003 2 0.472055 0.540977 0.465204
2010 2 0.469812 0.543832 0.470548
2011 2 0.467179 0.545629 0.476256
1996 2 0.476237 0.552044 0.478743
2002 2 0.475847 0.545616 0.468135
2004 2 0.472966 0.547958 0.474234
1995 2 0.479188 0.550119 0.472325
2005 2 0.470754 0.549857 0.480081
1991 2 0.490646 0.545677 0.461694
1994 2 0.481548 0.547451 0.467227
2139 2 0.482497 0.553495 0.476766
1993 2 0.484127 0.54419 0.462274
2140 2 0.485264 0.551607 0.471315
2142 2 0.494165 0.549636 0.465906
2141 2 0.488074 0.548778 0.466059
2113 2 0.494596 0.555691 0.47587
2114 2 0.488472 0.554687 0.475932
2117 2 0.498621 0.552696 0.469921
2118 2 0.492277 0.552895 0.471377
2147 2 0.518821 0.542819 0.461774
2112 2 0.501083 0.555676 0.475169
2121 2 0.500795 0.549528 0.464987
2116 2 0.504434 0.551764 0.468922
2120 2 0.508313 0.548608 0.464549
2110 2 0.513751 0.553381 0.473781
2111 2 0.507058 0.554688 0.474017
2115 2 0.511145 0.550775 0.468945
2119 2 0.51535 0.546611 0.464781
2149 2 0.517864 0.549525 0.469966
2106 2 0.505256 0.55738 0.479743
2105 2 0.511881 0.555925 0.47896
2104 2 0.51808 0.55517 0.480639
2150 2 0.52033 0.552254 0.475867
1978 2 0.530148 0.539342 0.465497
2148 2 0.522213 0.546039 0.466956
1986 2 0.524846 0.541529 0.463628
1972 2 0.533453 0.5418 0.471162
1967 2 0.536083 0.543998 0.477263
1973 2 0.530232 0.546473 0.474888
1979 2 0.52402 0.548958 0.472989
1983 2 0.527943 0.544175 0.469168
2097 2 0.526602 0.551136 0.479267
1974 2 0.531718 0.548492 0.480579
1966 2 0.53855 0.539566 0.474096
1959 2 0.541034 0.541029 0.480293
2107 2 0.498773 0.557856 0.480547
1312 2 0.481539 0.441614 0.493283
1306 2 0.491503 0.440517 0.488086
1309 2 0.48753 0.440404 0.494252
2404 2 0.493564 0.439024 0.49485
1301 2 0.495034 0.441547 0.482261
1305 2 0.498306 0.439447 0.489239
2410 2 0.483197 0.44086 0.499778
1310 2 0.485246 0.441764 0.487958
1294 2 0.499924 0.438836 0.494927
1300 2 0.504774 0.43956 0.490611
1295 2 0.501447 0.44088 0.483961
1289 2 0.510838 0.440193 0.491782
1281 2 0.50816 0.440798 0.485824
1288 2 0.506735 0.439011 0.496802
1287 2 0.517529 0.441509 0.492477
2400 2 0.512991 0.439848 0.497475
1280 2 0.515058 0.442129 0.486695
1404 2 0.518791 0.441341 0.499325
1496 2 0.458106 0.456097 0.49061
2297 2 0.457426 0.458344 0.484953
1504 2 0.457105 0.456187 0.497252
2296 2 0.46113 0.452554 0.494413
1505 2 0.4534 0.460439 0.494952
1497 2 0.45406 0.461087 0.488617
2376 2 0.477647 0.446386 0.480841
1490 2 0.462691 0.454308 0.48338
1493 2 0.463548 0.45173 0.489168
2377 2 0.468022 0.449908 0.485166
1314 2 0.475279 0.444176 0.491551
2374 2 0.469038 0.447494 0.491206
1218 2 0.473528 0.446478 0.485929
2424 2 0.465288 0.449259 0.496488
2295 2 0.471606 0.445631 0.496954
2412 2 0.477195 0.442968 0.49849
1313 2 0.479819 0.443584 0.487353
1307 2 0.483195 0.444027 0.481686
1302 2 0.489257 0.442673 0.481735
1272 2 0.512123 0.44313 0.480939
1271 2 0.519068 0.444204 0.483209
1414 2 0.529991 0.449881 0.481522
1279 2 0.521708 0.444026 0.488049
1270 2 0.527882 0.445798 0.491165
1405 2 0.532126 0.448983 0.487972
2393 2 0.526674 0.446599 0.485257
1267 2 0.523494 0.443381 0.494843
2398 2 0.53404 0.449358 0.494008
1406 2 0.53622 0.452888 0.485413
2335 2 0.529335 0.446023 0.497672
2333 2 0.538022 0.45244 0.491386
1674 2 0.538999 0.452353 0.497811
1415 2 0.539403 0.457091 0.481842
1407 2 0.542051 0.456856 0.48722
2332 2 0.543206 0.456963 0.493405
1671 2 0.547376 0.460787 0.496579
2331 2 0.546015 0.461029 0.489504
1408 2 0.543969 0.461084 0.482414
1521 2 0.442246 0.479427 0.495881
1491 2 0.454721 0.463101 0.481844
2298 2 0.450543 0.467398 0.484649
1498 2 0.447139 0.471327 0.48709
1499 2 0.445514 0.476594 0.484635
1507 2 0.444369 0.475219 0.49177
1506 2 0.450277 0.46489 0.490648
1514 2 0.447048 0.469285 0.494349
1513 2 0.449849 0.464657 0.497231
1526 2 0.444339 0.473607 0.498879
1653 2 0.554755 0.480204 0.480928
2329 2 0.550565 0.470798 0.481709
1658 2 0.555805 0.475189 0.491712
1659 2 0.553743 0.474969 0.485247
1663 2 0.553583 0.470728 0.494911
1664 2 0.551744 0.469422 0.488391
1668 2 0.550004 0.465199 0.492762
2330 2 0.548313 0.46533 0.484681
1667 2 0.550781 0.465513 0.499305
1657 2 0.556161 0.475077 0.49834
1652 2 0.556774 0.480141 0.487559
1651 2 0.55802 0.480174 0.494366
1515 2 0.440858 0.484872 0.493051
1517 2 0.440035 0.491181 0.490303
1524 2 0.438687 0.49657 0.494507
1510 2 0.441003 0.494087 0.483831
1516 2 0.441726 0.486955 0.485817
1522 2 0.43926 0.490168 0.496793
1518 2 0.439654 0.498847 0.488803
1527 2 0.440673 0.484338 0.499919
1508 2 0.442789 0.480976 0.488679
1500 2 0.444163 0.482693 0.482182
1638 2 0.557255 0.490462 0.481078
1645 2 0.557501 0.485633 0.484346
1636 2 0.559176 0.491558 0.487554
1635 2 0.560688 0.491002 0.494562
1644 2 0.558816 0.485112 0.490916
1643 2 0.559596 0.485309 0.497255
1633 2 0.56121 0.496675 0.497431
2250 2 0.560655 0.496621 0.490823
2249 2 0.559023 0.495867 0.483801
1511 2 0.44109 0.500661 0.48273
2291 2 0.438802 0.503126 0.494237
2292 2 0.439944 0.504932 0.488376
1782 2 0.44131 0.511471 0.48688
1783 2 0.44125 0.516178 0.491959
1789 2 0.439912 0.509684 0.493388
1774 2 0.4418 0.506658 0.482113
1790 2 0.440282 0.513992 0.498337
1795 2 0.43904 0.5077 0.499395
1776 2 0.442881 0.517202 0.486332
1943 2 0.556475 0.513167 0.480858
1941 2 0.555793 0.518552 0.48284
1940 2 0.558536 0.513334 0.486672
2248 2 0.55853 0.507364 0.483099
1936 2 0.558969 0.515201 0.492214
1939 2 0.560016 0.508004 0.489615
1931 2 0.560445 0.509549 0.495429
1935 2 0.559876 0.501958 0.485848
1930 2 0.560949 0.50206 0.493521
1926 2 0.559324 0.51591 0.498305
1924 2 0.561385 0.503577 0.499546
1784 2 0.442295 0.520492 0.49618
2209 2 0.453311 0.534209 0.481513
1777 2 0.44401 0.522662 0.490245
1768 2 0.445667 0.523618 0.484392
1769 2 0.44883 0.529365 0.483154
1770 2 0.450505 0.534007 0.487761
1778 2 0.446916 0.528931 0.489382
1779 2 0.448231 0.532585 0.494465
1785 2 0.445177 0.527029 0.495155
1771 2 0.452516 0.537854 0.492174
1787 2 0.450846 0.536849 0.498169
1937 2 0.556824 0.520378 0.488383
1949 2 0.548376 0.533252 0.482675
1938 2 0.553378 0.524815 0.482958
1934 2 0.551957 0.52981 0.487217
1928 2 0.55495 0.527319 0.497101
1929 2 0.552353 0.531723 0.493209
1933 2 0.554776 0.525749 0.490534
2160 2 0.548884 0.535135 0.488715
1923 2 0.54961 0.535765 0.495665
1932 2 0.557409 0.521447 0.494656
1950 2 0.545267 0.538231 0.484571
2208 2 0.454572 0.538787 0.486233
1780 2 0.454877 0.54163 0.49757
2013 2 0.459619 0.543537 0.484964
2207 2 0.456632 0.542548 0.491506
1772 2 0.459935 0.546699 0.495561
2006 2 0.461715 0.546722 0.489119
2136 2 0.464889 0.547027 0.482904
2138 2 0.479559 0.555161 0.48315
1997 2 0.47322 0.553026 0.485005
2135 2 0.46467 0.549932 0.494277
2088 2 0.466898 0.550031 0.487214
2137 2 0.476377 0.555584 0.489333
2134 2 0.469761 0.552712 0.491494
2194 2 0.474177 0.555365 0.495046
1222 2 0.468825 0.553135 0.497864
2133 2 0.478205 0.557559 0.499912
2109 2 0.485653 0.556713 0.482242
2103 2 0.482796 0.557643 0.48817
2098 2 0.516282 0.5574 0.485848
2152 2 0.523217 0.553827 0.482615
1968 2 0.537106 0.545829 0.483143
2089 2 0.523562 0.55556 0.488663
2154 2 0.528245 0.554337 0.494315
1961 2 0.528503 0.552755 0.486803
2081 2 0.532626 0.55154 0.491903
1953 2 0.533113 0.549393 0.485756
2126 2 0.522935 0.556864 0.496314
2151 2 0.532562 0.552148 0.498924
1960 2 0.538078 0.546907 0.489949
1952 2 0.537106 0.548709 0.495703
2162 2 0.542395 0.544017 0.493715
1951 2 0.541988 0.543082 0.487077
2161 2 0.546258 0.539614 0.491777
1916 2 0.546264 0.540374 0.498475
2163 2 0.54147 0.545341 0.49954
2096 2 0.480619 0.558134 0.494318
2108 2 0.491951 0.557913 0.481621
2102 2 0.489335 0.55919 0.487906
2095 2 0.486118 0.559357 0.493362
2101 2 0.495502 0.559725 0.486792
2085 2 0.497275 0.561413 0.497624
2086 2 0.491071 0.56054 0.498041
2094 2 0.493628 0.56059 0.492117
2087 2 0.485108 0.559655 0.499652
2093 2 0.499928 0.560703 0.491786
2100 2 0.502125 0.559372 0.485166
2084 2 0.504788 0.561293 0.495964
2092 2 0.506144 0.560351 0.490038
2082 2 0.517375 0.558865 0.49732
2083 2 0.510617 0.560462 0.496611
2091 2 0.512206 0.559292 0.490723
2099 2 0.509675 0.558569 0.484463
2090 2 0.518325 0.557976 0.491298
1234 2 0.478645 0.442249 0.504619
2406 2 0.495624 0.438845 0.500672
2408 2 0.488503 0.439849 0.500783
1242 2 0.48522 0.44067 0.505581
1243 2 0.488199 0.44109 0.511918
1249 2 0.491678 0.439454 0.506884
1250 2 0.495132 0.440171 0.512312
1255 2 0.498362 0.438806 0.506644
1245 2 0.498623 0.441646 0.517977
1244 2 0.490965 0.441891 0.517523
1251 2 0.501316 0.439819 0.512566
1260 2 0.502228 0.438676 0.502423
2402 2 0.509272 0.439492 0.502774
1256 2 0.505561 0.439344 0.507802
1257 2 0.508066 0.44058 0.513345
1266 2 0.512508 0.440722 0.508935
2396 2 0.515764 0.440852 0.504229
1252 2 0.504556 0.441899 0.518767
1317 2 0.456144 0.459565 0.514409
2372 2 0.454905 0.45931 0.507924
2373 2 0.458401 0.45509 0.504904
1316 2 0.459685 0.455054 0.511383
1512 2 0.453905 0.459408 0.501385
1495 2 0.461557 0.452112 0.501152
1325 2 0.462194 0.455181 0.517273
2423 2 0.463286 0.451273 0.506944
1315 2 0.467222 0.448342 0.502252
2414 2 0.472788 0.444938 0.50365
1225 2 0.468351 0.447929 0.508409
1226 2 0.474477 0.444927 0.509286
1324 2 0.464679 0.451276 0.512844
2422 2 0.470924 0.447894 0.514651
1227 2 0.4768 0.445306 0.514635
1332 2 0.467943 0.451785 0.519199
1235 2 0.481284 0.442477 0.510894
1236 2 0.483735 0.443398 0.516331
1264 2 0.515912 0.442375 0.513619
1265 2 0.51804 0.444586 0.518655
1262 2 0.511432 0.442686 0.518069
1269 2 0.519813 0.442466 0.507952
2395 2 0.522437 0.444209 0.512931
2334 2 0.534871 0.449284 0.501042
2394 2 0.523869 0.443248 0.501989
1402 2 0.52632 0.445017 0.507895
1399 2 0.529216 0.447649 0.512779
1217 2 0.529413 0.44624 0.503333
1268 2 0.534211 0.451076 0.513763
1403 2 0.533604 0.449302 0.507365
1261 2 0.529487 0.449905 0.51906
2397 2 0.524587 0.44679 0.518083
1400 2 0.536654 0.454345 0.518241
1673 2 0.543596 0.456666 0.500327
2337 2 0.538785 0.453653 0.511167
2336 2 0.538896 0.452773 0.504683
1672 2 0.543464 0.456857 0.506477
1401 2 0.543148 0.45842 0.512682
1670 2 0.547507 0.461105 0.503263
1397 2 0.541024 0.458329 0.518318
1530 2 0.442236 0.478616 0.502636
2371 2 0.451514 0.463775 0.510738
1519 2 0.450751 0.46347 0.504233
1520 2 0.44725 0.468388 0.501132
1525 2 0.445162 0.47304 0.505217
2369 2 0.448297 0.468001 0.507845
2370 2 0.449527 0.468454 0.514731
2368 2 0.446322 0.472681 0.512265
1534 2 0.443241 0.478369 0.508861
1318 2 0.453868 0.464135 0.51805
2365 2 0.444572 0.478647 0.515214
1320 2 0.447662 0.474031 0.51857
1669 2 0.547365 0.462291 0.510103
1662 2 0.553816 0.470269 0.501847
2338 2 0.545608 0.463091 0.517018
1655 2 0.555084 0.475961 0.51236
1656 2 0.556145 0.475708 0.50571
1660 2 0.552353 0.472101 0.515663
1661 2 0.553153 0.470552 0.507953
1665 2 0.550544 0.467282 0.512291
1666 2 0.550862 0.465822 0.505608
1654 2 0.553778 0.478014 0.518802
2339 2 0.548516 0.467879 0.518842
1649 2 0.557864 0.480634 0.507496
1650 2 0.55817 0.480493 0.501367
1532 2 0.440811 0.484911 0.506232
1523 2 0.438832 0.496039 0.500703
1528 2 0.439557 0.490077 0.502512
1539 2 0.440676 0.489089 0.51175
2366 2 0.440407 0.495566 0.513958
1529 2 0.439437 0.493773 0.507888
1538 2 0.441942 0.491782 0.517648
2367 2 0.442035 0.483655 0.512242
1533 2 0.438834 0.499363 0.506846
2285 2 0.443576 0.48539 0.518165
1648 2 0.556732 0.481767 0.514694
1639 2 0.557522 0.487841 0.517467
1634 2 0.560723 0.491193 0.501027
1641 2 0.560618 0.492511 0.507182
1632 2 0.55962 0.492592 0.513245
1640 2 0.55896 0.486917 0.511235
1642 2 0.559578 0.486271 0.504957
2251 2 0.561285 0.498088 0.503677
2252 2 0.560602 0.498718 0.510131
2254 2 0.559088 0.499669 0.516226
1631 2 0.557967 0.494284 0.518803
2290 2 0.438793 0.501551 0.500828
2288 2 0.440629 0.510618 0.510699
1800 2 0.440012 0.512661 0.504504
2289 2 0.439323 0.5064 0.506204
1801 2 0.441782 0.516792 0.5096
1531 2 0.439891 0.503897 0.511342
2287 2 0.441514 0.50743 0.516599
1796 2 0.441635 0.518919 0.50317
2364 2 0.441177 0.500534 0.51683
1804 2 0.442501 0.513698 0.515983
1 1 0.5 0.5 0.5
2 1 0.5 0.5 0.5
3 1 0.5 0.5 0.5
4 1 0.5 0.5 0.5
5 1 0.5 0.5 0.5
6 1 0.5 0.5 0.5
7 1 0.5 0.5 0.5
8 1 0.5 0.5 0.5
9 1 0.5 0.5 0.5
10 1 0.5 0.5 0.5
11 1 0.5 0.5 0.5
12 1 0.5 0.5 0.5
13 1 0.5 0.5 0.5
14 1 0.5 0.5 0.5
15 1 0.5 0.5 0.5
16 1 0.5 0.5 0.5
17 1 0.5 0.5 0.5
18 1 0.5 0.5 0.5
19 1 0.5 0.5 0.5
20 1 0.5 0.5 0.5
21 1 0.5 0.5 0.5
22 1 0.5 0.5 0.5
23 1 0.5 0.5 0.5
24 1 0.5 0.5 0.5
25 1 0.5 0.5 0.5
26 1 0.5 0.5 0.5
27 1 0.5 0.5 0.5
28 1 0.5 0.5 0.5
29 1 0.5 0.5 0.5
30 1 0.5 0.5 0.5
31 1 0.5 0.5 0.5
32 1 0.5 0.5 0.5
33 1 0.5 0.5 0.5
34 1 0.5 0.5 0.5
35 1 0.5 0.5 0.5
36 1 0.5 0.5 0.5
37 1 0.5 0.5 0.5
38 1 0.5 0.5 0.5
39 1 0.5 0.5 0.5
40 1 0.5 0.5 0.5
41 1 0.5 0.5 0.5
42 1 0.5 0.5 0.5
43 1 0.5 0.5 0.5
44 1 0.5 0.5 0.5
45 1 0.5 0.5 0.5
46 1 0.5 0.5 0.5
47 1 0.5 0.5 0.5
48 1 0.5 0.5 0.5
49 1 0.5 0.5 0.5
50 1 0.5 0.5 0.5
51 1 0.5 0.5 0.5
52 1 0.5 0.5 0.5
53 1 0.5 0.5 0.5
54 1 0.5 0.5 0.5
55 1 0.5 0.5 0.5
56 1 0.5 0.5 0.5
57 1 0.5 0.5 0.5
58 1 0.5 0.5 0.5
59 1 0.5 0.5 0.5
60 1 0.5 0.5 0.5
61 1 0.5 0.5 0.5
62 1 0.5 0.5 0.5
63 1 0.5 0.5 0.5
64 1 0.5 0.5 0.5
65 1 0.5 0.5 0.5
66 1 0.5 0.5 0.5
67 1 0.5 0.5 0.5
68 1 0.5 0.5 0.5
69 1 0.5 0.5 0.5
70 1 0.5 0.5 0.5
71 1 0.5 0.5 0.5
72 1 0.5 0.5 0.5
73 1 0.5 0.5 0.5
74 1 0.5 0.5 0.5
75 1 0.5 0.5 0.5
76 1 0.5 0.5 0.5
77 1 0.5 0.5 0.5
78 1 0.5 0.5 0.5
79 1 0.5 0.5 0.5
80 1 0.5 0.5 0.5
81 1 0.5 0.5 0.5
82 1 0.5 0.5 0.5
83 1 0.5 0.5 0.5
84 1 0.5 0.5 0.5
85 1 0.5 0.5 0.5
86 1 0.5 0.5 0.5
87 1 0.5 0.5 0.5
88 1 0.5 0.5 0.5
89 1 0.5 0.5 0.5
90 1 0.5 0.5 0.5
91 1 0.5 0.5 0.5
92 1 0.5 0.5 0.5
93 1 0.5 0.5 0.5
94 1 0.5 0.5 0.5
95 1 0.5 0.5 0.5
96 1 0.5 0.5 0.5
97 1 0.5 0.5 0.5
98 1 0.5 0.5 0.5
99 1 0.5 0.5 0.5
100 1 0.5 0.5 0.5
101 1 0.5 0.5 0.5
102 1 0.5 0.5 0.5
103 1 0.5 0.5 0.5
104 1 0.5 0.5 0.5
105 1 0.5 0.5 0.5
106 1 0.5 0.5 0.5
107 1 0.5 0.5 0.5
108 1 0.5 0.5 0.5
109 1 0.5 0.5 0.5
110 1 0.5 0.5 0.5
111 1 0.5 0.5 0.5
112 1 0.5 0.5 0.5
113 1 0.5 0.5 0.5
114 1 0.5 0.5 0.5
115 1 0.5 0.5 0.5
116 1 0.5 0.5 0.5
117 1 0.5 0.5 0.5
118 1 0.5 0.5 0.5
119 1 0.5 0.5 0.5
120 1 0.5 0.5 0.5
121 1 0.5 0.5 0.5
122 1 0.5 0.5 0.5
123 1 0.5 0.5 0.5
124 1 0.5 0.5 0.5
125 1 0.5 0.5 0.5
126 1 0.5 0.5 0.5
127 1 0.5 0.5 0.5
128 1 0.5 0.5 0.5
129 1 0.5 0.5 0.5
130 1 0.5 0.5 0.5
131 1 0.5 0.5 0.5
132 1 0.5 0.5 0.5
133 1 0.5 0.5 0.5
134 1 0.5 0.5 0.5
135 1 0.5 0.5 0.5
136 1 0.5 0.5 0.5
137 1 0.5 0.5 0.5
138 1 0.5 0.5 0.5
139 1 0.5 0.5 0.5
140 1 0.5 0.5 0.5
141 1 0.5 0.5 0.5
142 1 0.5 0.5 0.5
143 1 0.5 0.5 0.5
144 1 0.5 0.5 0.5
145 1 0.5 0.5 0.5
146 1 0.5 0.5 0.5
147 1 0.5 0.5 0.5
148 1 0.5 0.5 0.5
149 1 0.5 0.5 0.5
150 1 0.5 0.5 0.5
151 1 0.5 0.5 0.5
152 1 0.5 0.5 0.5
153 1 0.5 0.5 0.5
154 1 0.5 0.5 0.5
155 1 0.5 0.5 0.5
156 1 0.5 0.5 0.5
157 1 0.5 0.5 0.5
158 1 0.5 0.5 0.5
159 1 0.5 0.5 0.5
160 1 0.5 0.5 0.5
161 1 0.5 0.5 0.5
162 1 0.5 0.5 0.5
163 1 0.5 0.5 0.5
164 1 0.5 0.5 0.5
165 1 0.5 0.5 0.5
166 1 0.5 0.5 0.5
167 1 0.5 0.5 0.5
168 1 0.5 0.5 0.5
169 1 0.5 0.5 0.5
170 1 0.5 0.5 0.5
171 1 0.5 0.5 0.5
172 1 0.5 0.5 0.5
173 1 0.5 0.5 0.5
174 1 0.5 0.5 0.5
175 1 0.5 0.5 0.5
176 1 0.5 0.5 0.5
177 1 0.5 0.5 0.5
178 1 0.5 0.5 0.5
179 1 0.5 0.5 0.5
180 1 0.5 0.5 0.5
181 1 0.5 0.5 0.5
182 1 0.5 0.5 0.5
183 1 0.5 0.5 0.5
184 1 0.5 0.5 0.5
185 1 0.5 0.5 0.5
186 1 0.5 0.5 0.5
187 1 0.5 0.5 0.5
188 1 0.5 0.5 0.5
189 1 0.5 0.5 0.5
190 1 0.5 0.5 0.5
191 1 0.5 0.5 0.5
192 1 0.5 0.5 0.5
193 1 0.5 0.5 0.5
194 1 0.5 0.5 0.5
195 1 0.5 0.5 0.5
196 1 0.5 0.5 0.5
197 1 0.5 0.5 0.5
198 1 0.5 0.5 0.5
199 1 0.5 0.5 0.5
200 1 0.5 0.5 0.5
201 1 0.5 0.5 0.5
202 1 0.5 0.5 0.5
203 1 0.5 0.5 0.5
204 1 0.5 0.5 0.5
205 1 0.5 0.5 0.5
206 1 0.5 0.5 0.5
207 1 0.5 0.5 0.5
208 1 0.5 0.5 0.5
209 1 0.5 0.5 0.5
210 1 0.5 0.5 0.5
211 1 0.5 0.5 0.5
212 1 0.5 0.5 0.5
213 1 0.5 0.5 0.5
214 1 0.5 0.5 0.5
215 1 0.5 0.5 0.5
216 1 0.5 0.5 0.5
217 1 0.5 0.5 0.5
218 1 0.5 0.5 0.5
219 1 0.5 0.5 0.5
220 1 0.5 0.5 0.5
221 1 0.5 0.5 0.5
222 1 0.5 0.5 0.5
223 1 0.5 0.5 0.5
224 1 0.5 0.5 0.5
225 1 0.5 0.5 0.5
226 1 0.5 0.5 0.5
227 1 0.5 0.5 0.5
228 1 0.5 0.5 0.5
229 1 0.5 0.5 0.5
230 1 0.5 0.5 0.5
231 1 0.5 0.5 0.5
232 1 0.5 0.5 0.5
233 1 0.5 0.5 0.5
234 1 0.5 0.5 0.5
235 1 0.5 0.5 0.5
236 1 0.5 0.5 0.5
237 1 0.5 0.5 0.5
238 1 0.5 0.5 0.5
239 1 0.5 0.5 0.5
240 1 0.5 0.5 0.5
241 1 0.5 0.5 0.5
242 1 0.5 0.5 0.5
243 1 0.5 0.5 0.5
244 1 0.5 0.5 0.5
245 1 0.5 0.5 0.5
246 1 0.5 0.5 0.5
247 1 0.5 0.5 0.5
248 1 0.5 0.5 0.5
249 1 0.5 0.5 0.5
250 1 0.5 0.5 0.5
251 1 0.5 0.5 0.5
252 1 0.5 0.5 0.5
253 1 0.5 0.5 0.5
254 1 0.5 0.5 0.5
255 1 0.5 0.5 0.5
256 1 0.5 0.5 0.5
257 1 0.5 0.5 0.5
258 1 0.5 0.5 0.5
259 1 0.5 0.5 0.5
260 1 0.5 0.5 0.5
261 1 0.5 0.5 0.5
262 1 0.5 0.5 0.5
263 1 0.5 0.5 0.5
264 1 0.5 0.5 0.5
265 1 0.5 0.5 0.5
266 1 0.5 0.5 0.5
267 1 0.5 0.5 0.5
268 1 0.5 0.5 0.5
269 1 0.5 0.5 0.5
270 1 0.5 0.5 0.5
271 1 0.5 0.5 0.5
272 1 0.5 0.5 0.5
273 1 0.5 0.5 0.5
274 1 0.5 0.5 0.5
275 1 0.5 0.5 0.5
276 1 0.5 0.5 0.5
277 1 0.5 0.5 0.5
278 1 0.5 0.5 0.5
279 1 0.5 0.5 0.5
280 1 0.5 0.5 0.5
281 1 0.5 0.5 0.5
282 1 0.5 0.5 0.5
283 1 0.5 0.5 0.5
284 1 0.5 0.5 0.5
285 1 0.5 0.5 0.5
286 1 0.5 0.5 0.5
287 1 0.5 0.5 0.5
288 1 0.5 0.5 0.5
289 1 0.5 0.5 0.5
290 1 0.5 0.5 0.5
291 1 0.5 0.5 0.5
292 1 0.5 0.5 0.5
293 1 0.5 0.5 0.5
294 1 0.5 0.5 0.5
295 1 0.5 0.5 0.5
296 1 0.5 0.5 0.5
297 1 0.5 0.5 0.5
298 1 0.5 0.5 0.5
299 1 0.5 0.5 0.5
300 1 0.5 0.5 0.5
301 1 0.5 0.5 0.5
302 1 0.5 0.5 0.5
303 1 0.5 0.5 0.5
304 1 0.5 0.5 0.5
305 1 0.5 0.5 0.5
306 1 0.5 0.5 0.5
307 1 0.5 0.5 0.5
308 1 0.5 0.5 0.5
309 1 0.5 0.5 0.5
310 1 0.5 0.5 0.5
311 1 0.5 0.5 0.5
312 1 0.5 0.5 0.5
313 1 0.5 0.5 0.5
314 1 0.5 0.5 0.5
315 1 0.5 0.5 0.5
316 1 0.5 0.5 0.5
317 1 0.5 0.5 0.5
318 1 0.5 0.5 0.5
319 1 0.5 0.5 0.5
320 1 0.5 0.5 0.5