ITEM: TIMESTEP
50000
ITEM: NUMBER OF ATOMS
2424
ITEM: BOX BOUNDS pp pp pp
-50 50
-50 50
-50 50
ITEM: ATOMS id type xs ys zs
1720 2 0.49289 0.476816 0.437086
1729 2 0.488197 0.47309 0.440325
2312 2 0.483098 0.477897 0.439616
1213 2 0.494783 0.472223 0.439794
2227 2 0.498623 0.478105 0.435707
1721 2 0.487645 0.480318 0.436366
2225 2 0.501637 0.473086 0.438525
1717 2 0.516127 0.475365 0.440463
1719 2 0.505289 0.478094 0.435952
2316 2 0.509009 0.474136 0.439211
1718 2 0.51235 0.479721 0.436775
1710 2 0.521823 0.478011 0.441913
1744 2 0.477364 0.481968 0.440072
1745 2 0.476574 0.48833 0.437941
1746 2 0.476947 0.494452 0.436663
1751 2 0.471785 0.492782 0.440488
1752 2 0.473174 0.499098 0.438809
1750 2 0.472008 0.486329 0.442003
1747 2 0.4838 0.496198 0.433307
2226 2 0.493709 0.483056 0.433852
1739 2 0.482695 0.489535 0.4348
1723 2 0.495562 0.494695 0.43053
1730 2 0.494951 0.488379 0.432013
1731 2 0.489496 0.49303 0.43185
1737 2 0.482086 0.483607 0.436905
1738 2 0.488146 0.486797 0.43372
1740 2 0.489498 0.499204 0.431492
1722 2 0.501551 0.483437 0.433384
2228 2 0.501978 0.489017 0.431487
1724 2 0.501925 0.495169 0.430461
2229 2 0.508214 0.496922 0.430729
1712 2 0.513367 0.492607 0.432717
1713 2 0.508036 0.489577 0.431981
1715 2 0.513713 0.485847 0.434778
1716 2 0.507841 0.483312 0.43392
1714 2 0.518934 0.481789 0.438065
1702 2 0.519229 0.495146 0.434637
1708 2 0.514929 0.499286 0.432798
1707 2 0.519246 0.489257 0.43591
1711 2 0.523505 0.485421 0.439305
1700 2 0.530555 0.494102 0.441685
1706 2 0.525264 0.492333 0.438391
1701 2 0.52384 0.498409 0.436781
1699 2 0.529016 0.487633 0.442297
1695 2 0.528625 0.499625 0.43997
1753 2 0.478602 0.500163 0.435291
1754 2 0.476563 0.512155 0.438451
1757 2 0.474545 0.505567 0.437944
2220 2 0.478419 0.518632 0.439856
1758 2 0.471013 0.509995 0.441723
2219 2 0.473042 0.515965 0.441976
1748 2 0.480522 0.508056 0.435169
1760 2 0.469587 0.503831 0.441573
1732 2 0.496963 0.5008 0.430172
1749 2 0.482693 0.513967 0.435873
1741 2 0.483948 0.502841 0.433033
1743 2 0.488977 0.516515 0.43467
1733 2 0.491327 0.505487 0.431305
1734 2 0.498395 0.50667 0.430684
1735 2 0.493137 0.511355 0.43218
1742 2 0.486817 0.509444 0.433086
1727 2 0.495763 0.517237 0.433718
1726 2 0.500145 0.513269 0.43214
1725 2 0.503193 0.501443 0.430044
2230 2 0.510945 0.510244 0.432587
1709 2 0.508932 0.503784 0.431022
2231 2 0.505 0.508475 0.431144
1698 2 0.51402 0.515917 0.435214
1704 2 0.515487 0.505921 0.433162
2232 2 0.506711 0.515198 0.433369
1697 2 0.518824 0.510478 0.435628
1690 2 0.520259 0.517143 0.438343
1703 2 0.520785 0.503681 0.435135
1689 2 0.524131 0.511569 0.438679
1696 2 0.526675 0.505672 0.439016
1688 2 0.529489 0.51044 0.442103
2238 2 0.525974 0.516912 0.44172
2014 2 0.479206 0.523803 0.442208
2221 2 0.484171 0.520113 0.437845
1736 2 0.491223 0.521865 0.436596
2222 2 0.486161 0.525381 0.440062
2223 2 0.497055 0.52343 0.436646
1999 2 0.49272 0.527647 0.439798
2144 2 0.499487 0.529048 0.440385
1691 2 0.50904 0.519975 0.435684
1682 2 0.515619 0.52155 0.438414
1728 2 0.501865 0.519348 0.434419
2224 2 0.503719 0.52491 0.437589
2233 2 0.510258 0.525249 0.439198
2234 2 0.505463 0.530186 0.441403
1683 2 0.517233 0.526357 0.442196
2237 2 0.521819 0.522053 0.441809
1467 2 0.480315 0.460881 0.456558
1293 2 0.490191 0.455004 0.46036
2382 2 0.485031 0.45756 0.458745
2383 2 0.493908 0.460703 0.450937
1459 2 0.491595 0.457902 0.455054
1451 2 0.485858 0.460951 0.453255
1276 2 0.49636 0.45369 0.461055
1286 2 0.497897 0.457043 0.455022
1444 2 0.511289 0.458505 0.455378
1277 2 0.500418 0.460566 0.450216
1447 2 0.50465 0.457193 0.45553
1441 2 0.517506 0.459655 0.457027
2387 2 0.501531 0.454443 0.459429
1275 2 0.508389 0.454449 0.460786
2386 2 0.506712 0.46106 0.450335
1440 2 0.514741 0.455995 0.461148
1471 2 0.461281 0.474905 0.460621
1464 2 0.460872 0.4803 0.456585
1468 2 0.475308 0.463298 0.45715
2311 2 0.477534 0.475726 0.443521
1452 2 0.478791 0.470239 0.446935
1453 2 0.473418 0.473726 0.447967
1454 2 0.467934 0.477915 0.449594
1461 2 0.474772 0.467883 0.4523
1462 2 0.469788 0.471961 0.452887
1463 2 0.464349 0.476645 0.454821
1469 2 0.469964 0.466949 0.45786
2310 2 0.472421 0.479448 0.444862
1470 2 0.465597 0.471209 0.458276
1460 2 0.480791 0.464685 0.451384
1278 2 0.495472 0.464416 0.44636
2313 2 0.483214 0.472238 0.443069
2314 2 0.485024 0.466681 0.446886
1450 2 0.489253 0.463143 0.449331
2384 2 0.490805 0.467901 0.443881
2315 2 0.498769 0.467868 0.442811
1449 2 0.505401 0.468981 0.442395
2317 2 0.512972 0.470371 0.442888
1445 2 0.513335 0.46218 0.450936
2385 2 0.503094 0.464657 0.446119
1448 2 0.510074 0.465453 0.446566
1446 2 0.516214 0.466639 0.447698
2318 2 0.519575 0.471796 0.444879
1432 2 0.528716 0.464348 0.459675
1433 2 0.531324 0.469694 0.456044
1437 2 0.523464 0.461884 0.45808
1438 2 0.526041 0.466762 0.454018
1439 2 0.528372 0.472413 0.450695
1442 2 0.519598 0.463718 0.452754
1443 2 0.522161 0.468266 0.449687
1434 2 0.533227 0.475086 0.453412
2319 2 0.525086 0.474057 0.446469
1427 2 0.536571 0.472697 0.459403
2320 2 0.53006 0.477944 0.447944
1426 2 0.533698 0.467877 0.461088
1428 2 0.538688 0.478636 0.457071
2306 2 0.456048 0.491252 0.458111
1456 2 0.459765 0.487161 0.454326
2307 2 0.45896 0.493977 0.453142
2305 2 0.456182 0.497904 0.456673
1457 2 0.456791 0.485318 0.459896
1756 2 0.467758 0.497358 0.442934
1455 2 0.463761 0.483134 0.451424
1755 2 0.467075 0.490617 0.444643
1759 2 0.463008 0.495167 0.447949
2308 2 0.463137 0.488756 0.449488
2309 2 0.467697 0.484233 0.446361
1705 2 0.52696 0.481306 0.443283
1693 2 0.53379 0.491038 0.445478
1692 2 0.532953 0.484179 0.446914
2321 2 0.53513 0.480906 0.450967
1694 2 0.534021 0.498611 0.444406
1684 2 0.536841 0.487587 0.449827
1685 2 0.537608 0.495245 0.448784
2322 2 0.539592 0.484568 0.454182
1420 2 0.542334 0.482868 0.459741
2323 2 0.543294 0.489067 0.457886
1676 2 0.540494 0.4921 0.45293
1675 2 0.543817 0.496239 0.456631
1764 2 0.459925 0.500597 0.451001
2032 2 0.461011 0.517195 0.455035
2216 2 0.458966 0.511357 0.454926
2215 2 0.457026 0.504527 0.455743
2033 2 0.456095 0.514297 0.460345
2034 2 0.454594 0.507806 0.46007
2214 2 0.453726 0.501989 0.461043
1763 2 0.461144 0.506956 0.450287
1762 2 0.464168 0.501145 0.446265
2217 2 0.463326 0.512843 0.44968
1761 2 0.465664 0.508135 0.445771
2029 2 0.466239 0.51923 0.449659
2218 2 0.467499 0.514568 0.445978
1681 2 0.531504 0.515378 0.445566
1687 2 0.53217 0.504524 0.443205
1680 2 0.534872 0.510149 0.446684
1686 2 0.537051 0.504087 0.447911
2240 2 0.536552 0.51505 0.450477
1677 2 0.540261 0.501004 0.451516
1679 2 0.539311 0.508989 0.451534
2241 2 0.540914 0.513638 0.455572
1678 2 0.543195 0.507653 0.456282
2242 2 0.543807 0.501788 0.456506
1962 2 0.542137 0.518112 0.460145
2243 2 0.544387 0.512309 0.460735
1945 2 0.546287 0.505541 0.461423
2030 2 0.459343 0.520543 0.459553
2025 2 0.472233 0.521123 0.445288
2027 2 0.46318 0.526896 0.459348
2026 2 0.463937 0.523022 0.454772
2022 2 0.467497 0.528373 0.455402
2009 2 0.47813 0.531976 0.449483
2016 2 0.472716 0.529396 0.451098
2020 2 0.475377 0.526569 0.446629
2021 2 0.469331 0.524278 0.449864
2010 2 0.472878 0.533859 0.45565
2017 2 0.467417 0.532346 0.460218
2001 2 0.479134 0.536315 0.453719
2015 2 0.482198 0.529101 0.444653
2008 2 0.484127 0.53406 0.448081
2007 2 0.488577 0.531068 0.443733
1990 2 0.495548 0.533223 0.443905
2000 2 0.490542 0.535755 0.447604
2124 2 0.496327 0.53782 0.448665
1992 2 0.485909 0.538417 0.452035
1220 2 0.501248 0.534047 0.444724
2236 2 0.512481 0.529954 0.443143
2235 2 0.507809 0.534228 0.445473
1989 2 0.514532 0.534133 0.447621
2145 2 0.502005 0.538378 0.449355
2146 2 0.508507 0.538036 0.449941
1969 2 0.538035 0.519333 0.455009
1987 2 0.519659 0.530429 0.446741
2239 2 0.532966 0.520859 0.449726
1985 2 0.520276 0.535435 0.452255
1980 2 0.534758 0.524728 0.45492
1970 2 0.535302 0.529165 0.459893
1971 2 0.530902 0.5297 0.454881
1975 2 0.529252 0.526016 0.450222
1976 2 0.524984 0.530863 0.450938
1981 2 0.528025 0.521809 0.445928
1984 2 0.524074 0.526461 0.446255
1964 2 0.526198 0.534718 0.455817
1958 2 0.531086 0.533936 0.460409
1977 2 0.526065 0.538246 0.461007
1963 2 0.539065 0.523466 0.459239
2002 2 0.475745 0.538565 0.459606
2141 2 0.481546 0.540394 0.457521
1991 2 0.487719 0.542819 0.457735
2143 2 0.49172 0.540758 0.453459
2121 2 0.49444 0.544352 0.458304
2123 2 0.498236 0.541979 0.453899
1988 2 0.51442 0.538474 0.452356
2120 2 0.501607 0.545378 0.459343
2122 2 0.504975 0.542215 0.454428
2147 2 0.510493 0.542061 0.455815
1986 2 0.516684 0.541563 0.457916
2119 2 0.507352 0.54553 0.460371
1982 2 0.521635 0.538563 0.457289
1474 2 0.476202 0.45965 0.461759
1480 2 0.472852 0.45871 0.467127
1481 2 0.468359 0.459324 0.472314
1485 2 0.473465 0.455887 0.47248
1486 2 0.471846 0.455128 0.477831
1489 2 0.476205 0.451652 0.480769
1487 2 0.466425 0.458691 0.477699
2379 2 0.477793 0.455272 0.46874
2378 2 0.478678 0.45259 0.474868
2381 2 0.486576 0.453235 0.465393
1298 2 0.495117 0.449305 0.471223
1299 2 0.492639 0.451666 0.465985
1303 2 0.490667 0.448314 0.47615
1304 2 0.488863 0.450368 0.471136
1308 2 0.48329 0.452271 0.470334
2380 2 0.481258 0.456163 0.463744
1311 2 0.48453 0.44974 0.475758
1291 2 0.498389 0.447401 0.476565
1285 2 0.49877 0.450968 0.466381
1292 2 0.50207 0.44888 0.471952
2388 2 0.510875 0.452347 0.465914
1274 2 0.508154 0.449621 0.471248
1282 2 0.511521 0.448404 0.477093
1283 2 0.505616 0.447629 0.476848
1284 2 0.504779 0.451492 0.465716
2389 2 0.514141 0.450983 0.471585
2390 2 0.517577 0.449948 0.477499
1435 2 0.517443 0.454123 0.466387
1436 2 0.520962 0.457405 0.462981
1422 2 0.525672 0.45474 0.474817
1423 2 0.53182 0.458465 0.475058
1429 2 0.520163 0.45288 0.472332
1430 2 0.523777 0.456046 0.468329
2391 2 0.523627 0.451851 0.479607
1424 2 0.529458 0.459067 0.469873
1431 2 0.526723 0.460218 0.463772
1415 2 0.529483 0.455452 0.479979
1465 2 0.457694 0.479044 0.4624
1472 2 0.45777 0.471722 0.471069
1473 2 0.45616 0.476977 0.467872
1479 2 0.459162 0.467085 0.475489
2301 2 0.453936 0.475332 0.474897
1501 2 0.450898 0.478813 0.479724
1484 2 0.455869 0.470117 0.479058
1477 2 0.460797 0.471553 0.46508
2302 2 0.45244 0.48048 0.472471
1475 2 0.470479 0.463072 0.46232
1482 2 0.466832 0.463478 0.467275
1478 2 0.462088 0.466603 0.470092
1483 2 0.463469 0.462942 0.474737
1476 2 0.465241 0.467456 0.463261
1416 2 0.534836 0.463149 0.470649
1425 2 0.532589 0.464042 0.465143
1417 2 0.537399 0.468404 0.46644
1408 2 0.536434 0.462176 0.47607
1418 2 0.541718 0.472854 0.468131
1419 2 0.540515 0.475098 0.462618
1409 2 0.540986 0.466254 0.477715
1410 2 0.539711 0.467784 0.471857
1411 2 0.545592 0.477866 0.47031
2329 2 0.543755 0.472043 0.47376
1659 2 0.547068 0.476544 0.476751
2330 2 0.544678 0.470654 0.479357
1412 2 0.543852 0.479546 0.464962
1458 2 0.453291 0.489599 0.463755
1466 2 0.454347 0.482808 0.465907
1503 2 0.449224 0.490166 0.473706
2303 2 0.449837 0.484356 0.476128
2304 2 0.45154 0.486375 0.469462
1224 2 0.453158 0.495962 0.461892
2293 2 0.448567 0.497549 0.472638
2294 2 0.450619 0.493524 0.468198
1511 2 0.447162 0.4953 0.478202
1765 2 0.45073 0.499747 0.466937
1502 2 0.447497 0.489311 0.480217
2328 2 0.548874 0.481979 0.474606
2324 2 0.546447 0.492911 0.46224
1421 2 0.545798 0.486666 0.463625
1413 2 0.549266 0.497208 0.467347
1638 2 0.55108 0.494603 0.472405
1646 2 0.550467 0.488177 0.473586
1653 2 0.550192 0.480825 0.480516
2326 2 0.548762 0.490311 0.467843
2327 2 0.54744 0.483941 0.468818
1637 2 0.552563 0.493398 0.47806
1645 2 0.551832 0.486946 0.479719
2244 2 0.54685 0.499121 0.461852
1766 2 0.450729 0.511036 0.470047
1767 2 0.452465 0.517416 0.469898
2212 2 0.453318 0.51309 0.46509
2213 2 0.451776 0.506722 0.465553
1774 2 0.449144 0.503676 0.471191
1775 2 0.448374 0.50786 0.475189
1776 2 0.450225 0.514827 0.474543
2292 2 0.447212 0.5014 0.477245
1783 2 0.448216 0.513225 0.479874
2211 2 0.455531 0.518929 0.464722
1777 2 0.450081 0.518826 0.479036
1782 2 0.446746 0.506992 0.480721
2246 2 0.553172 0.500034 0.478605
1954 2 0.548 0.509904 0.466469
2325 2 0.551493 0.501111 0.47272
1223 2 0.549201 0.503482 0.467279
2245 2 0.552812 0.505369 0.478289
1946 2 0.549416 0.512976 0.471569
2155 2 0.550968 0.507537 0.472239
2156 2 0.551708 0.51117 0.477362
1956 2 0.54595 0.515707 0.465501
1955 2 0.549813 0.517184 0.476891
2158 2 0.546856 0.519216 0.47032
1768 2 0.45315 0.522464 0.474579
2024 2 0.458643 0.529266 0.470254
2028 2 0.45588 0.524102 0.469423
2031 2 0.458809 0.524856 0.464155
2209 2 0.459121 0.533309 0.47659
2210 2 0.455829 0.527952 0.475808
1769 2 0.45247 0.524911 0.480512
2011 2 0.470779 0.536704 0.462144
2019 2 0.462328 0.53418 0.470954
2023 2 0.462475 0.530376 0.464932
2012 2 0.463755 0.538265 0.476378
2018 2 0.466198 0.535397 0.46621
1972 2 0.531197 0.537683 0.466003
1949 2 0.535685 0.532857 0.46502
1965 2 0.535877 0.53574 0.470264
1950 2 0.5392 0.534494 0.475247
2159 2 0.540293 0.530357 0.469898
1957 2 0.539644 0.527593 0.464579
2157 2 0.546886 0.523329 0.475357
1947 2 0.543919 0.525579 0.470586
1948 2 0.543027 0.522297 0.465255
2160 2 0.543326 0.529589 0.475736
1933 2 0.542273 0.533146 0.480228
2004 2 0.467293 0.539094 0.471275
2003 2 0.472061 0.540337 0.466399
1994 2 0.476294 0.54358 0.467698
1995 2 0.472291 0.543274 0.472527
1996 2 0.473412 0.54596 0.478389
2005 2 0.468411 0.542259 0.476955
2139 2 0.478106 0.546652 0.473039
2138 2 0.479766 0.549298 0.479095
1993 2 0.479438 0.542458 0.462479
2140 2 0.482188 0.546415 0.467947
2142 2 0.484937 0.545122 0.463244
2118 2 0.49159 0.546646 0.462808
2109 2 0.483902 0.549213 0.47361
2107 2 0.496451 0.551875 0.474947
2108 2 0.490351 0.550989 0.473966
2113 2 0.494625 0.549575 0.468819
2114 2 0.488591 0.548745 0.468664
2117 2 0.497658 0.547747 0.463589
2102 2 0.485485 0.551285 0.479109
2101 2 0.49186 0.552852 0.479521
2100 2 0.498605 0.553693 0.48049
2112 2 0.500351 0.550151 0.469363
2148 2 0.51409 0.544814 0.462063
2104 2 0.515127 0.55085 0.478216
2105 2 0.509149 0.551898 0.476408
2106 2 0.502538 0.552151 0.475068
2110 2 0.513639 0.549374 0.471685
2111 2 0.506988 0.55034 0.47086
2115 2 0.510295 0.547735 0.465995
2116 2 0.503967 0.548153 0.464684
2149 2 0.517077 0.546395 0.467842
2099 2 0.504785 0.553529 0.480713
2150 2 0.519375 0.548137 0.473948
1951 2 0.536824 0.538678 0.47914
1959 2 0.533267 0.539469 0.473546
1983 2 0.520792 0.542664 0.463197
1966 2 0.528614 0.542816 0.472165
1978 2 0.526461 0.541164 0.466315
1967 2 0.530841 0.543271 0.478099
1973 2 0.525288 0.54609 0.475925
1979 2 0.522534 0.545086 0.469756
1974 2 0.520986 0.549236 0.479793
2296 2 0.461066 0.46036 0.49347
1491 2 0.463569 0.459989 0.482701
1490 2 0.468135 0.456126 0.48326
2377 2 0.478584 0.449456 0.486674
1314 2 0.474478 0.450733 0.491625
1492 2 0.472588 0.4526 0.485486
1493 2 0.464523 0.457717 0.488664
1494 2 0.465852 0.45577 0.494835
2375 2 0.471017 0.452261 0.496552
2376 2 0.469202 0.454172 0.490134
2412 2 0.476531 0.44931 0.497184
2295 2 0.463672 0.457541 0.499683
1313 2 0.481926 0.449158 0.481011
1312 2 0.480894 0.447831 0.4924
1307 2 0.488641 0.447452 0.481431
1297 2 0.494689 0.44622 0.482094
1302 2 0.497955 0.444935 0.487589
1305 2 0.493589 0.444762 0.49243
1306 2 0.490855 0.445917 0.486678
1309 2 0.487322 0.445879 0.492334
1310 2 0.484354 0.447393 0.486715
2408 2 0.489844 0.44506 0.4983
2410 2 0.483765 0.446443 0.497714
1300 2 0.496201 0.444251 0.498368
1301 2 0.50066 0.444579 0.493201
1296 2 0.500729 0.446046 0.481823
1281 2 0.513392 0.447356 0.483062
1290 2 0.507114 0.446343 0.482755
1272 2 0.518028 0.447942 0.488579
1289 2 0.510951 0.445899 0.488554
1280 2 0.514358 0.446145 0.493341
1288 2 0.507052 0.444752 0.494195
1294 2 0.502677 0.444194 0.499296
1295 2 0.504377 0.445163 0.487926
1287 2 0.511121 0.445232 0.498148
1279 2 0.516637 0.44654 0.499949
1407 2 0.534789 0.458924 0.481329
1271 2 0.520673 0.448162 0.494972
1273 2 0.519298 0.449337 0.48314
2392 2 0.523366 0.450017 0.489287
1270 2 0.525952 0.450635 0.495597
1405 2 0.534537 0.456319 0.492761
1406 2 0.532357 0.455718 0.485969
1414 2 0.526665 0.452351 0.485383
2393 2 0.529368 0.452967 0.491277
2332 2 0.537101 0.459349 0.487773
2334 2 0.531748 0.454066 0.49768
1674 2 0.536766 0.457916 0.499186
2333 2 0.539486 0.460634 0.494355
1488 2 0.459381 0.464562 0.481189
1496 2 0.45891 0.462181 0.498667
2297 2 0.460111 0.462399 0.487517
2300 2 0.452992 0.473375 0.482453
2299 2 0.452679 0.471533 0.488904
1497 2 0.455225 0.466597 0.497419
1498 2 0.456482 0.465417 0.491657
1500 2 0.450069 0.477278 0.486274
1506 2 0.452271 0.471255 0.495197
1507 2 0.449649 0.476455 0.492091
2298 2 0.455875 0.467411 0.485587
1514 2 0.449684 0.475964 0.498616
2331 2 0.539153 0.46242 0.482639
1673 2 0.54387 0.465596 0.494753
1657 2 0.550878 0.477169 0.496486
1658 2 0.55172 0.480287 0.491616
1662 2 0.547688 0.471096 0.495041
1663 2 0.549184 0.474577 0.49035
1664 2 0.547294 0.473152 0.48388
1667 2 0.545885 0.469073 0.489588
1668 2 0.543391 0.467236 0.483872
1671 2 0.541574 0.463727 0.488926
1652 2 0.549998 0.47789 0.485769
1515 2 0.447271 0.481531 0.495427
1499 2 0.447541 0.482459 0.488826
1509 2 0.448515 0.483612 0.482113
1508 2 0.446302 0.48828 0.486525
1510 2 0.445856 0.495008 0.483988
1516 2 0.445808 0.487368 0.493022
1517 2 0.444996 0.493116 0.490307
1523 2 0.444258 0.497365 0.495786
1524 2 0.444709 0.499109 0.489183
1522 2 0.444896 0.491575 0.496768
1521 2 0.445849 0.486034 0.499637
1649 2 0.553196 0.483134 0.496542
1651 2 0.552201 0.483779 0.485952
1650 2 0.553762 0.486322 0.49121
1635 2 0.555295 0.498427 0.489923
1636 2 0.554305 0.496121 0.483833
1643 2 0.554748 0.492241 0.489519
1644 2 0.55344 0.489455 0.484424
1634 2 0.555573 0.49565 0.495478
1642 2 0.554872 0.48976 0.496004
1518 2 0.445642 0.501008 0.483148
1529 2 0.444367 0.503811 0.494496
2291 2 0.445151 0.505057 0.488076
1784 2 0.448048 0.517033 0.484638
1789 2 0.446464 0.510895 0.485243
1790 2 0.446752 0.515151 0.490228
2290 2 0.445301 0.509225 0.491564
1796 2 0.446465 0.515498 0.496566
1795 2 0.444846 0.509561 0.497965
2289 2 0.444247 0.502295 0.499895
2249 2 0.555685 0.501942 0.495411
1943 2 0.551947 0.51526 0.482776
2248 2 0.555188 0.504985 0.48975
1944 2 0.553486 0.509626 0.48381
2247 2 0.554312 0.502951 0.484215
1942 2 0.552475 0.517244 0.48839
1935 2 0.555205 0.507572 0.49573
1936 2 0.554019 0.513932 0.494213
1939 2 0.554148 0.510988 0.48895
1926 2 0.553218 0.517588 0.499365
1770 2 0.455839 0.530686 0.481736
2208 2 0.459975 0.536033 0.482189
1785 2 0.448532 0.5208 0.491326
1771 2 0.453771 0.530887 0.492879
1778 2 0.450174 0.523208 0.486057
1779 2 0.453036 0.52853 0.486471
1786 2 0.451035 0.526187 0.49138
2207 2 0.456801 0.534219 0.487885
1772 2 0.457988 0.536722 0.493166
1792 2 0.448065 0.520839 0.497554
1787 2 0.451114 0.527061 0.497919
1780 2 0.45515 0.533356 0.497948
1932 2 0.551995 0.520148 0.493521
1941 2 0.546446 0.527204 0.481148
1940 2 0.550293 0.522083 0.48666
1938 2 0.54445 0.531989 0.485807
1937 2 0.549215 0.521867 0.481042
1921 2 0.547697 0.528906 0.498387
1922 2 0.544104 0.534176 0.49764
1927 2 0.549486 0.525574 0.492874
1928 2 0.546091 0.531092 0.492361
1929 2 0.542511 0.535712 0.491
1934 2 0.547534 0.527637 0.487518
1920 2 0.550984 0.522964 0.499386
2161 2 0.540423 0.536756 0.484586
2006 2 0.46111 0.539019 0.488153
1773 2 0.459478 0.538541 0.498591
2013 2 0.464587 0.540636 0.48204
2206 2 0.462725 0.541266 0.493662
2137 2 0.474929 0.548348 0.483989
1997 2 0.469019 0.544789 0.483269
1998 2 0.465647 0.543197 0.488304
2088 2 0.47332 0.549022 0.494176
2135 2 0.468089 0.545798 0.494058
2136 2 0.47129 0.547251 0.488669
2096 2 0.477447 0.550575 0.489787
2087 2 0.47977 0.551861 0.495187
2205 2 0.464858 0.543246 0.499217
2134 2 0.470045 0.547258 0.499957
2103 2 0.480761 0.551064 0.484477
2084 2 0.492397 0.555366 0.496498
2085 2 0.485875 0.55398 0.495749
2093 2 0.489991 0.554401 0.490524
2094 2 0.488042 0.553147 0.484684
2095 2 0.483785 0.552807 0.489398
2092 2 0.494131 0.554357 0.485246
2083 2 0.496728 0.555362 0.491453
2129 2 0.498801 0.555851 0.497269
2091 2 0.500823 0.554747 0.486533
2098 2 0.510835 0.553027 0.482452
2097 2 0.513139 0.553751 0.489111
2081 2 0.509626 0.554826 0.493872
2082 2 0.503713 0.555383 0.492218
2090 2 0.50723 0.554381 0.48707
2089 2 0.514916 0.553711 0.496559
2151 2 0.517336 0.551792 0.484682
2128 2 0.50528 0.555531 0.498608
2152 2 0.518767 0.552336 0.492123
2162 2 0.536155 0.54084 0.484602
1968 2 0.526199 0.547489 0.482401
1960 2 0.531376 0.544325 0.483231
1952 2 0.528324 0.547145 0.487925
1953 2 0.524938 0.549662 0.492784
1961 2 0.522276 0.550255 0.486872
2163 2 0.53355 0.543784 0.489298
2164 2 0.530838 0.546514 0.494764
1916 2 0.535727 0.543077 0.496161
1923 2 0.538337 0.539946 0.490455
2153 2 0.521155 0.551672 0.498347
2154 2 0.527104 0.549059 0.498581
1915 2 0.540155 0.53893 0.496488
1495 2 0.460693 0.460427 0.504389
2373 2 0.462571 0.459573 0.511253
1218 2 0.468568 0.453696 0.501832
1225 2 0.475767 0.450035 0.508702
1315 2 0.467085 0.455792 0.512423
1324 2 0.464466 0.459267 0.517615
2374 2 0.465448 0.456309 0.506069
2414 2 0.474798 0.450095 0.502709
2423 2 0.472682 0.452531 0.513971
2424 2 0.470597 0.452693 0.507385
1226 2 0.478957 0.449498 0.514495
1234 2 0.479918 0.447848 0.503051
1332 2 0.46955 0.45556 0.518845
2422 2 0.474867 0.45241 0.519052
1235 2 0.484743 0.447589 0.514976
1242 2 0.481821 0.447732 0.508859
1243 2 0.491259 0.446158 0.515185
1249 2 0.485915 0.445917 0.503876
1255 2 0.488003 0.445906 0.50931
2406 2 0.491953 0.444732 0.503795
1260 2 0.494595 0.444896 0.509689
1250 2 0.497654 0.445283 0.514126
2404 2 0.498274 0.444232 0.503696
1261 2 0.501352 0.444536 0.508586
2400 2 0.51193 0.445473 0.504742
1256 2 0.503342 0.445552 0.515281
1264 2 0.507103 0.445161 0.510139
1265 2 0.510454 0.446269 0.515254
1267 2 0.514458 0.44654 0.510635
2402 2 0.506129 0.444431 0.503752
2398 2 0.518246 0.447274 0.505834
1262 2 0.517173 0.448488 0.516822
1266 2 0.520995 0.449022 0.51138
2396 2 0.52254 0.448771 0.501028
2394 2 0.528063 0.451476 0.501978
1217 2 0.52938 0.453152 0.508883
1269 2 0.524534 0.449994 0.506761
1403 2 0.53592 0.458982 0.515756
1404 2 0.531065 0.454999 0.513983
2335 2 0.533079 0.455043 0.503713
2395 2 0.535008 0.457096 0.509825
2397 2 0.525437 0.451529 0.514567
2336 2 0.538365 0.45947 0.505141
2337 2 0.539721 0.461335 0.510582
1513 2 0.452717 0.470032 0.501814
1316 2 0.459675 0.463263 0.515533
1504 2 0.458001 0.463936 0.50912
1505 2 0.45645 0.465188 0.503457
1512 2 0.453665 0.469447 0.508478
1519 2 0.448507 0.479662 0.508221
1520 2 0.450069 0.474957 0.504847
1525 2 0.449596 0.479027 0.514875
2371 2 0.451468 0.4736 0.511682
2372 2 0.455672 0.467844 0.514313
1526 2 0.447647 0.480515 0.501692
2369 2 0.453071 0.472961 0.517113
1672 2 0.541619 0.462546 0.500012
1656 2 0.551609 0.47893 0.501865
1670 2 0.545804 0.467839 0.500685
1655 2 0.550118 0.475973 0.507129
1660 2 0.55116 0.480194 0.512973
1661 2 0.547142 0.47008 0.506457
1665 2 0.544207 0.466714 0.510583
1666 2 0.54895 0.473088 0.501196
1669 2 0.54328 0.465059 0.50551
2338 2 0.540904 0.464159 0.516292
2340 2 0.548296 0.473166 0.512147
2341 2 0.548414 0.475946 0.517621
1389 2 0.545243 0.469767 0.516131
1530 2 0.447283 0.484123 0.51253
1527 2 0.446335 0.485392 0.506033
1528 2 0.44476 0.491162 0.503327
1531 2 0.445903 0.489182 0.510428
1532 2 0.444752 0.495299 0.509333
1533 2 0.44416 0.496443 0.502608
1536 2 0.445876 0.493208 0.51511
1535 2 0.447103 0.488274 0.517865
2287 2 0.445034 0.499894 0.513097
1654 2 0.55089 0.482535 0.518563
1648 2 0.552697 0.481711 0.507066
2250 2 0.55586 0.499182 0.501164
1632 2 0.554482 0.488453 0.507113
1633 2 0.555466 0.492922 0.501451
1640 2 0.55293 0.48576 0.512957
1641 2 0.55424 0.486403 0.502008
2252 2 0.554494 0.491972 0.512324
2251 2 0.555379 0.495375 0.507118
1909 2 0.554896 0.498469 0.512941
1631 2 0.553699 0.494253 0.517712
1639 2 0.552598 0.488558 0.518478
2286 2 0.446102 0.500186 0.51845
1804 2 0.444669 0.506582 0.503843
2288 2 0.44429 0.500761 0.506148
1797 2 0.4471 0.516694 0.508644
1800 2 0.445902 0.513529 0.502667
1801 2 0.445536 0.51122 0.50816
1807 2 0.445234 0.505801 0.511175
1802 2 0.44636 0.511387 0.514159
1805 2 0.446254 0.506202 0.517456
1803 2 0.448332 0.517746 0.514383
1 1 0.5 0.5 0.5
2 1 0.5 0.5 0.5
3 1 0.5 0.5 0.5
4 1 0.5 0.5 0.5
5 1 0.5 0.5 0.5
6 1 0.5 0.5 0.5
7 1 0.5 0.5 0.5
8 1 0.5 0.5 0.5
9 1 0.5 0.5 0.5
10 1 0.5 0.5 0.5
11 1 0.5 0.5 0.5
12 1 0.5 0.5 0.5
13 1 0.5 0.5 0.5
14 1 0.5 0.5 0.5
15 1 0.5 0.5 0.5
16 1 0.5 0.5 0.5
17 1 0.5 0.5 0.5
18 1 0.5 0.5 0.5
19 1 0.5 0.5 0.5
20 1 0.5 0.5 0.5
21 1 0.5 0.5 0.5
22 1 0.5 0.5 0.5
23 1 0.5 0.5 0.5
24 1 0.5 0.5 0.5
25 1 0.5 0.5 0.5
26 1 0.5 0.5 0.5
27 1 0.5 0.5 0.5
28 1 0.5 0.5 0.5
29 1 0.5 0.5 0.5
30 1 0.5 0.5 0.5
31 1 0.5 0.5 0.5
32 1 0.5 0.5 0.5
33 1 0.5 0.5 0.5
34 1 0.5 0.5 0.5
35 1 0.5 0.5 0.5
36 1 0.5 0.5 0.5
37 1 0.5 0.5 0.5
38 1 0.5 0.5 0.5
39 1 0.5 0.5 0.5
40 1 0.5 0.5 0.5
41 1 0.5 0.5 0.5
42 1 0.5 0.5 0.5
43 1 0.5 0.5 0.5
44 1 0.5 0.5 0.5
45 1 0.5 0.5 0.5
46 1 0.5 0.5 0.5
47 1 0.5 0.5 0.5
48 1 0.5 0.5 0.5
49 1 0.5 0.5 0.5
50 1 0.5 0.5 0.5
51 1 0.5 0.5 0.5
52 1 0.5 0.5 0.5
53 1 0.5 0.5 0.5
54 1 0.5 0.5 0.5
55 1 0.5 0.5 0.5
56 1 0.5 0.5 0.5
57 1 0.5 0.5 0.5
58 1 0.5 0.5 0.5
59 1 0.5 0.5 0.5
60 1 0.5 0.5 0.5
61 1 0.5 0.5 0.5
62 1 0.5 0.5 0.5
63 1 0.5 0.5 0.5
64 1 0.5 0.5 0.5
65 1 0.5 0.5 0.5
66 1 0.5 0.5 0.5
67 1 0.5 0.5 0.5
68 1 0.5 0.5 0.5
69 1 0.5 0.5 0.5
70 1 0.5 0.5 0.5
71 1 0.5 0.5 0.5
72 1 0.5 0.5 0.5
73 1 0.5 0.5 0.5
74 1 0.5 0.5 0.5
75 1 0.5 0.5 0.5
76 1 0.5 0.5 0.5
77 1 0.5 0.5 0.5
78 1 0.5 0.5 0.5
79 1 0.5 0.5 0.5
80 1 0.5 0.5 0.5
81 1 0.5 0.5 0.5
82 1 0.5 0.5 0.5
83 1 0.5 0.5 0.5
84 1 0.5 0.5 0.5
85 1 0.5 0.5 0.5
86 1 0.5 0.5 0.5
87 1 0.5 0.5 0.5
88 1 0.5 0.5 0.5
89 1 0.5 0.5 0.5
90 1 0.5 0.5 0.5
91 1 0.5 0.5 0.5
92 1 0.5 0.5 0.5
93 1 0.5 0.5 0.5
94 1 0.5 0.5 0.5
95 1 0.5 0.5 0.5
96 1 0.5 0.5 0.5
97 1 0.5 0.5 0.5
98 1 0.5 0.5 0.5
99 1 0.5 0.5 0.5
100 1 0.5 0.5 0.5
101 1 0.5 0.5 0.5
102 1 0.5 0.5 0.5
103 1 0.5 0.5 0.5
104 1 0.5 0.5 0.5
105 1 0.5 0.5 0.5
106 1 0.5 0.5 0.5
107 1 0.5 0.5 0.5
108 1 0.5 0.5 0.5
109 1 0.5 0.5 0.5
110 1 0.5 0.5 0.5
111 1 0.5 0.5 0.5
112 1 0.5 0.5 0.5
113 1 0.5 0.5 0.5
114 1 0.5 0.5 0.5
115 1 0.5 0.5 0.5
116 1 0.5 0.5 0.5
117 1 0.5 0.5 0.5
118 1 0.5 0.5 0.5
119 1 0.5 0.5 0.5
120 1 0.5 0.5 0.5
121 1 0.5 0.5 0.5
122 1 0.5 0.5 0.5
123 1 0.5 0.5 0.5
124 1 0.5 0.5 0.5
125 1 0.5 0.5 0.5
126 1 0.5 0.5 0.5
127 1 0.5 0.5 0.5
128 1 0.5 0.5 0.5
129 1 0.5 0.5 0.5
130 1 0.5 0.5 0.5
131 1 0.5 0.5 0.5
132 1 0.5 0.5 0.5
133 1 0.5 0.5 0.5
134 1 0.5 0.5 0.5
135 1 0.5 0.5 0.5
136 1 0.5 0.5 0.5
137 1 0.5 0.5 0.5
138 1 0.5 0.5 0.5
139 1 0.5 0.5 0.5
140 1 0.5 0.5 0.5
141 1 0.5 0.5 0.5
142 1 0.5 0.5 0.5
143 1 0.5 0.5 0.5
144 1 0.5 0.5 0.5
145 1 0.5 0.5 0.5
146 1 0.5 0.5 0.5
147 1 0.5 0.5 0.5
148 1 0.5 0.5 0.5
149 1 0.5 0.5 0.5
150 1 0.5 0.5 0.5
151 1 0.5 0.5 0.5
152 1 0.5 0.5 0.5
153 1 0.5 0.5 0.5
154 1 0.5 0.5 0.5
155 1 0.5 0.5 0.5
156 1 0.5 0.5 0.5
157 1 0.5 0.5 0.5
158 1 0.5 0.5 0.5
159 1 0.5 0.5 0.5
160 1 0.5 0.5 0.5
161 1 0.5 0.5 0.5
162 1 0.5 0.5 0.5
163 1 0.5 0.5 0.5
164 1 0.5 0.5 0.5
165 1 0.5 0.5 0.5
166 1 0.5 0.5 0.5
167 1 0.5 0.5 0.5
168 1 0.5 0.5 0.5
169 1 0.5 0.5 0.5
170 1 0.5 0.5 0.5
171 1 0.5 0.5 0.5
172 1 0.5 0.5 0.5
173 1 0.5 0.5 0.5
174 1 0.5 0.5 0.5
175 1 0.5 0.5 0.5
176 1 0.5 0.5 0.5
177 1 0.5 0.5 0.5
178 1 0.5 0.5 0.5
179 1 0.5 0.5 0.5
180 1 0.5 0.5 0.5
181 1 0.5 0.5 0.5
182 1 0.5 0.5 0.5
183 1 0.5 0.5 0.5
184 1 0.5 0.5 0.5
185 1 0.5 0.5 0.5
186 1 0.5 0.5 0.5
187 1 0.5 0.5 0.5
188 1 0.5 0.5 0.5
189 1 0.5 0.5 0.5
190 1 0.5 0.5 0.5
191 1 0.5 0.5 0.5
192 1 0.5 0.5 0.5
193 1 0.5 0.5 0.5
194 1 0.5 0.5 0.5
195 1 0.5 0.5 0.5
196 1 0.5 0.5 0.5
197 1 0.5 0.5 0.5
198 1 0.5 0.5 0.5
199 1 0.5 0.5 0.5
200 1 0.5 0.5 0.5
201 1 0.5 0.5 0.5
202 1 0.5 0.5 0.5
203 1 0.5 0.5 0.5
204 1 0.5 0.5 0.5
205 1 0.5 0.5 0.5
206 1 0.5 0.5 0.5
207 1 0.5 0.5 0.5
208 1 0.5 0.5 0.5
209 1 0.5 0.5 0.5
210 1 0.5 0.5 0.5
211 1 0.5 0.5 0.5
212 1 0.5 0.5 0.5
213 1 0.5 0.5 0.5
214 1 0.5 0.5 0.5
215 1 0.5 0.5 0.5
216 1 0.5 0.5 0.5
217 1 0.5 0.5 0.5
218 1 0.5 0.5 0.5
219 1 0.5 0.5 0.5
220 1 0.5 0.5 0.5
221 1 0.5 0.5 0.5
222 1 0.5 0.5 0.5
223 1 0.5 0.5 0.5
224 1 0.5 0.5 0.5
225 1 0.5 0.5 0.5
226 1 0.5 0.5 0.5
227 1 0.5 0.5 0.5
228 1 0.5 0.5 0.5
229 1 0.5 0.5 0.5
230 1 0.5 0.5 0.5
231 1 0.5 0.5 0.5
232 1 0.5 0.5 0.5
233 1 0.5 0.5 0.5
234 1 0.5 0.5 0.5
235 1 0.5 0.5 0.5
236 1 0.5 0.5 0.5
237 1 0.5 0.5 0.5
238 1 0.5 0.5 0.5
239 1 0.5 0.5 0.5
240 1 0.5 0.5 0.5
241 1 0.5 0.5 0.5
242 1 0.5 0.5 0.5
243 1 0.5 0.5 0.5
244 1 0.5 0.5 0.5
245 1 0.5 0.5 0.5
246 1 0.5 0.5 0.5
247 1 0.5 0.5 0.5
248 1 0.5 0.5 0.5
249 1 0.5 0.5 0.5
250 1 0.5 0.5 0.5
251 1 0.5 0.5 0.5
252 1 0.5 0.5 0.5
253 1 0.5 0.5 0.5
254 1 0.5 0.5 0.5
255 1 0.5 0.5 0.5
256 1 0.5 0.5 0.5
257 1 0.5 0.5 0.5
258 1 0.5 0.5 0.5
259 1 0.5 0.5 0.5
260 1 0.5 0.5 0.5
261 1 0.5 0.5 0.5
262 1 0.5 0.5 0.5
263 1 0.5 0.5 0.5
264 1 0.5 0.5 0.5
265 1 0.5 0.5 0.5
266 1 0.5 0.5 0.5
267 1 0.5 0.5 0.5
268 1 0.5 0.5 0.5
269 1 0.5 0.5 0.5
270 1 0.5 0.5 0.5
271 1 0.5 0.5 0.5
272 1 0.5 0.5 0.5
273 1 0.5 0.5 0.5
274 1 0.5 0.5 0.5
275 1 0.5 0.5 0.5
276 1 0.5 0.5 0.5
277 1 0.5 0.5 0.5
278 1 0.5 0.5 0.5
279 1 0.5 0.5 0.5
280 1 0.5 0.5 0.5
281 1 0.5 0.5 0.5
282 1 0.5 0.5 0.5
283 1 0.5 0.5 0.5
284 1 0.5 0.5 0.5
285 1 0.5 0.5 0.5
286 1 0.5 0.5 0.5
287 1 0.5 0.5 0.5
288 1 0.5 0.5 0.5
289 1 0.5 0.5 0.5
290 1 0.5 0.5 0.5
291 1 0.5 0.5 0.5
292 1 0.5 0.5 0.5
293 1 0.5 0.5 0.5
294 1 0.5 0.5 0.5
295 1 0.5 0.5 0.5
296 1 0.5 0.5 0.5
297 1 0.5 0.5 0.5
298 1 0.5 0.5 0.5
299 1 0.5 0.5 0.5
300 1 0.5 0.5 0.5
301 1 0.5 0.5 0.5
302 1 0.5 0.5 0.5
303 1 0.5 0.5 0.5
304 1 0.5 0.5 0.5
305 1 0.5 0.5 0.5
306 1 0.5 0.5 0.5
307 1 0.5 0.5 0.5
308 1 0.5 0.5 0.5
309 1 0.5 0.5 0.5
310 1 0.5 0.5 0.5
311 1 0.5 0.5 0.5
312 1 0.5 0.5 0.5
313 1 0.5 0.5 0.5
314 1 0.5 0.5 0.5
315 1 0.5 0.5 0.5
316 1 0.5 0.5 0.5
317 1 0.5 0.5 0.5
318 1 0.5 0.5 0.5
319 1 0.5 0.5 0.5
320 1 0.5 0.5 0.5
321 1 0.5 0.5 0.5
322 1 0.5 0.5 0.5
323 1 0.5 0.5 0.5
324 1 0.5 0.5 0.5
325 1 0.5 0.5 0.5
326 1 0.5 0.5 0.5
327 1 0.5 0.5 0.5
328 1 0.5 0.5 0.5
329 1 0.5 0.5 0.5
330 1 0.5 0.5 0.5
331 1 0.5 0.5 0.5
332 1 0.5 0.5 0.5
333 1 0.5 0.5 0.5
334 1 0.5 0.5 0.5
335 1 0.5 0.5 0.5
336 1 0.5 0.5 0.5
337 1 0.5 0.5 0.5
338 1 0.5 0.5 0.5
339 1 0.5 0.5 0.5
340 1 0.5 0.5 0.5
341 1 0.5 0.5 0.5