ITEM: TIMESTEP
50000
ITEM: NUMBER OF ATOMS
2424
ITEM: BOX BOUNDS pp pp pp
-50 50
-50 50
-50 50
ITEM: ATOMS id type xs ys zs
1746 2 0.477817 0.494287 0.442289
1721 2 0.49286 0.481246 0.44134
2226 2 0.499371 0.481868 0.440677
1722 2 0.493727 0.487134 0.439517
1723 2 0.49489 0.493094 0.438318
1730 2 0.487214 0.485075 0.441099
1731 2 0.488386 0.491776 0.439331
1732 2 0.490209 0.497899 0.438543
1739 2 0.484199 0.496095 0.439925
1724 2 0.496082 0.499641 0.437875
1738 2 0.482672 0.489503 0.441454
2228 2 0.499611 0.48878 0.438675
2229 2 0.500767 0.494973 0.437738
1712 2 0.512448 0.492692 0.439325
1713 2 0.507084 0.496358 0.438187
1715 2 0.510837 0.485645 0.440676
1716 2 0.505948 0.489911 0.438833
2227 2 0.505321 0.483817 0.440239
1711 2 0.516669 0.487557 0.441557
1707 2 0.518284 0.494451 0.440867
1708 2 0.513482 0.499187 0.439249
1747 2 0.478411 0.500846 0.441872
1741 2 0.480415 0.506602 0.441522
1740 2 0.484687 0.502194 0.439872
1725 2 0.493576 0.510484 0.438957
1726 2 0.495711 0.51736 0.440507
1733 2 0.49097 0.504256 0.438455
1734 2 0.486817 0.509079 0.439928
1735 2 0.489382 0.515481 0.440704
2230 2 0.497553 0.506387 0.438136
2231 2 0.499194 0.513378 0.4393
1742 2 0.482862 0.513864 0.442163
1709 2 0.502415 0.501163 0.437695
1689 2 0.515739 0.513179 0.441462
1690 2 0.5105 0.516973 0.441312
1696 2 0.514796 0.505621 0.439708
1697 2 0.51028 0.510093 0.43955
1698 2 0.505347 0.513407 0.439407
1703 2 0.508621 0.503424 0.438475
1704 2 0.503809 0.507563 0.438272
1702 2 0.519343 0.500793 0.441048
1688 2 0.519875 0.508085 0.44162
1691 2 0.503188 0.519303 0.441055
1468 2 0.478528 0.460765 0.458876
1286 2 0.494213 0.456862 0.457264
2382 2 0.488321 0.456041 0.459944
2383 2 0.490572 0.460994 0.454106
1459 2 0.485008 0.460363 0.456086
1285 2 0.498814 0.453909 0.460421
1277 2 0.50099 0.457939 0.455833
2387 2 0.507878 0.458708 0.455666
2388 2 0.511877 0.456292 0.45948
1444 2 0.514719 0.460599 0.455781
1276 2 0.505192 0.454892 0.459545
1440 2 0.519264 0.457921 0.460742
1464 2 0.458039 0.480463 0.460849
1469 2 0.472574 0.462725 0.460682
1455 2 0.462777 0.476295 0.458173
1452 2 0.473361 0.470803 0.453264
1453 2 0.468351 0.472938 0.455513
1454 2 0.466129 0.478742 0.453937
1461 2 0.475022 0.465775 0.456215
1462 2 0.468713 0.467931 0.458803
2310 2 0.471162 0.47819 0.450316
2311 2 0.476994 0.474275 0.449225
1463 2 0.463882 0.470908 0.460858
1451 2 0.479816 0.469553 0.450681
1278 2 0.496946 0.461602 0.452411
2312 2 0.480811 0.476995 0.446192
1460 2 0.481112 0.464387 0.454263
1450 2 0.486225 0.466072 0.450861
1720 2 0.489486 0.475535 0.444142
1729 2 0.485803 0.47975 0.443302
2313 2 0.484093 0.472197 0.447451
2314 2 0.489405 0.46996 0.447201
2384 2 0.492366 0.465332 0.450026
1213 2 0.495214 0.471105 0.445578
2225 2 0.49627 0.476443 0.442884
2385 2 0.499055 0.466466 0.448239
1719 2 0.502983 0.476853 0.442607
1718 2 0.509177 0.478615 0.442545
2386 2 0.503877 0.462323 0.451727
1447 2 0.51049 0.46391 0.451623
1448 2 0.512763 0.469272 0.448374
1449 2 0.505773 0.466835 0.448482
1717 2 0.514541 0.475446 0.445215
2315 2 0.501732 0.471312 0.445327
2316 2 0.508649 0.472999 0.444872
1445 2 0.51658 0.465492 0.452181
2317 2 0.518464 0.469933 0.449612
1441 2 0.520641 0.462836 0.45637
1438 2 0.53465 0.473953 0.45738
1439 2 0.530411 0.475891 0.452572
1442 2 0.526672 0.464747 0.458407
1443 2 0.529146 0.47014 0.455298
1446 2 0.523748 0.467783 0.453782
2318 2 0.524857 0.472912 0.45101
1710 2 0.520474 0.476331 0.446854
1432 2 0.533083 0.468499 0.45999
1434 2 0.53491 0.479956 0.454069
2319 2 0.525712 0.478919 0.448202
1433 2 0.539165 0.477904 0.458969
1762 2 0.459055 0.499179 0.454778
2306 2 0.454518 0.496747 0.459901
2307 2 0.458147 0.492708 0.456295
1457 2 0.457921 0.486209 0.458341
1458 2 0.454072 0.489928 0.461414
1456 2 0.461905 0.482569 0.455855
1744 2 0.475638 0.480871 0.44656
2309 2 0.46698 0.484078 0.451089
2308 2 0.462441 0.488605 0.453073
1745 2 0.476315 0.488283 0.44427
1750 2 0.47166 0.485006 0.44737
1751 2 0.471612 0.492269 0.445675
1752 2 0.473115 0.49837 0.444327
1755 2 0.467129 0.490271 0.44905
1756 2 0.467165 0.496889 0.44802
1759 2 0.462979 0.494478 0.451406
1737 2 0.48061 0.483296 0.443597
1714 2 0.514563 0.481655 0.442584
1692 2 0.530661 0.487619 0.448013
1693 2 0.532773 0.494962 0.448138
1699 2 0.525245 0.485482 0.445585
1700 2 0.527383 0.492217 0.445261
1701 2 0.524213 0.496862 0.443054
1705 2 0.520083 0.481987 0.444266
1706 2 0.521453 0.490282 0.442754
2320 2 0.53054 0.481605 0.449971
2321 2 0.535085 0.485879 0.45177
2322 2 0.535523 0.491558 0.450702
1694 2 0.529608 0.499325 0.445945
1684 2 0.538634 0.497395 0.452552
1428 2 0.540119 0.48431 0.456907
2323 2 0.54025 0.490121 0.455234
1420 2 0.544622 0.488249 0.460385
1421 2 0.543465 0.494859 0.45763
1419 2 0.543378 0.482139 0.461424
1764 2 0.456177 0.502932 0.457661
1763 2 0.460882 0.506579 0.453595
2216 2 0.45675 0.509384 0.458088
2032 2 0.458808 0.515307 0.457929
2217 2 0.462256 0.512261 0.453589
1760 2 0.463405 0.501314 0.450804
1761 2 0.465944 0.507846 0.44938
1748 2 0.474683 0.505184 0.443802
1749 2 0.477338 0.512439 0.443868
1753 2 0.471206 0.509791 0.446361
1754 2 0.472998 0.516146 0.447037
1757 2 0.468983 0.503056 0.446852
1758 2 0.467503 0.513358 0.449833
2218 2 0.46437 0.517771 0.45346
2220 2 0.478706 0.518997 0.445123
1685 2 0.534617 0.501255 0.449203
1681 2 0.521713 0.514041 0.443904
1678 2 0.535675 0.515092 0.452487
1679 2 0.535505 0.508723 0.450707
1680 2 0.530852 0.512303 0.448126
1686 2 0.530347 0.506096 0.446721
1687 2 0.526277 0.510016 0.444835
1695 2 0.52458 0.50391 0.443199
2239 2 0.526845 0.516509 0.447148
1676 2 0.542303 0.500491 0.456121
1677 2 0.538823 0.504775 0.452905
2241 2 0.540716 0.51601 0.457888
1954 2 0.544851 0.512248 0.46091
2242 2 0.540063 0.510853 0.455318
2243 2 0.543968 0.505796 0.458294
1675 2 0.546416 0.500186 0.460982
2029 2 0.461273 0.521384 0.458316
2219 2 0.469594 0.520115 0.450761
2026 2 0.462949 0.527246 0.460385
2025 2 0.466173 0.524145 0.455575
2001 2 0.477035 0.538009 0.458598
2008 2 0.477368 0.528653 0.45071
2009 2 0.470981 0.535257 0.459858
2014 2 0.474948 0.522601 0.448617
2015 2 0.474699 0.532817 0.455035
2020 2 0.471892 0.526861 0.452822
2021 2 0.468465 0.529943 0.457123
2000 2 0.480284 0.533891 0.452903
2232 2 0.497669 0.522959 0.442471
1743 2 0.485387 0.520369 0.443432
2221 2 0.481482 0.524582 0.446606
1736 2 0.491517 0.521677 0.442418
1727 2 0.493568 0.527766 0.4453
2007 2 0.483675 0.530709 0.449306
1220 2 0.498468 0.53746 0.451472
1728 2 0.496493 0.533043 0.44797
1999 2 0.485963 0.536609 0.453044
2144 2 0.492238 0.536773 0.451711
2222 2 0.487162 0.526482 0.44568
2223 2 0.489868 0.531863 0.448337
2233 2 0.499863 0.52844 0.445114
1682 2 0.516459 0.519232 0.443521
2224 2 0.50427 0.531168 0.446983
2234 2 0.504569 0.524496 0.44343
1683 2 0.510091 0.522587 0.443222
1987 2 0.516007 0.530732 0.449424
1988 2 0.515877 0.535816 0.453101
1989 2 0.510055 0.533664 0.449459
2235 2 0.504211 0.536702 0.450971
2236 2 0.510273 0.528401 0.446058
2237 2 0.515785 0.525107 0.445627
2240 2 0.53161 0.519283 0.451016
1985 2 0.521392 0.532319 0.452421
1970 2 0.5356 0.527036 0.458712
1975 2 0.531562 0.524908 0.454106
1976 2 0.531063 0.530942 0.4577
1977 2 0.525636 0.534293 0.456654
1980 2 0.527113 0.522922 0.449791
1981 2 0.526091 0.528715 0.452566
1984 2 0.521377 0.526484 0.448843
2238 2 0.521974 0.520925 0.446392
1969 2 0.5364 0.520667 0.455646
1982 2 0.520716 0.537862 0.457124
1963 2 0.539942 0.522602 0.460112
1991 2 0.482479 0.539678 0.457447
1990 2 0.489044 0.54133 0.456633
2124 2 0.495622 0.541593 0.455449
2123 2 0.497278 0.545495 0.459834
2143 2 0.491178 0.545457 0.460839
2146 2 0.509757 0.539101 0.453957
2145 2 0.502387 0.541391 0.455285
2122 2 0.50377 0.545122 0.459409
2147 2 0.509321 0.543145 0.458255
1986 2 0.515146 0.541043 0.457916
1487 2 0.462114 0.460475 0.475182
1475 2 0.47525 0.457875 0.4642
1480 2 0.473334 0.455226 0.469793
1481 2 0.467059 0.458003 0.472103
1485 2 0.471078 0.453598 0.475109
1486 2 0.466206 0.455627 0.478085
2378 2 0.476287 0.449396 0.478386
2379 2 0.476968 0.45139 0.47311
1476 2 0.469673 0.459911 0.466549
1474 2 0.479613 0.453722 0.46714
1467 2 0.482164 0.456714 0.461666
1293 2 0.492555 0.452665 0.463055
1292 2 0.496545 0.450074 0.466098
1298 2 0.494249 0.446921 0.472077
1299 2 0.490053 0.449709 0.468411
1303 2 0.491602 0.444816 0.478175
1304 2 0.488132 0.447105 0.474137
1308 2 0.482702 0.447676 0.476414
2380 2 0.483474 0.450297 0.47062
2381 2 0.485529 0.452803 0.465054
1297 2 0.498919 0.444985 0.476369
1291 2 0.500954 0.44783 0.47014
1274 2 0.513654 0.449979 0.469111
1275 2 0.509627 0.452355 0.463822
1282 2 0.511415 0.447074 0.473721
1283 2 0.507101 0.449115 0.468637
1284 2 0.503128 0.451044 0.464356
1290 2 0.505113 0.445647 0.475021
2389 2 0.516213 0.454036 0.464127
1281 2 0.510665 0.445156 0.478878
2390 2 0.517762 0.448676 0.474575
1273 2 0.516954 0.44631 0.4797
1296 2 0.503575 0.443562 0.480715
1437 2 0.525133 0.460202 0.461821
1423 2 0.532801 0.457839 0.472202
1429 2 0.526632 0.454752 0.470603
1430 2 0.529225 0.459145 0.466401
1435 2 0.519681 0.451714 0.469818
1436 2 0.52273 0.455372 0.466365
2391 2 0.524079 0.450891 0.474999
1422 2 0.530127 0.454328 0.475672
1415 2 0.534618 0.455944 0.478946
1416 2 0.537846 0.460464 0.475473
2392 2 0.527681 0.450846 0.480167
1472 2 0.454682 0.477104 0.466917
1478 2 0.456804 0.47152 0.469169
1479 2 0.452478 0.474929 0.472803
1483 2 0.459389 0.465616 0.472169
1484 2 0.454808 0.46923 0.475267
2300 2 0.450748 0.473517 0.478507
2301 2 0.449032 0.479034 0.476476
1471 2 0.459313 0.474459 0.463265
1488 2 0.457496 0.463759 0.47809
1477 2 0.461262 0.46803 0.466358
1482 2 0.463844 0.462853 0.469373
1470 2 0.466591 0.464939 0.463747
1424 2 0.534552 0.461917 0.468439
1431 2 0.531134 0.463746 0.462511
1425 2 0.537058 0.467143 0.465619
1426 2 0.538739 0.472518 0.462106
1427 2 0.54265 0.476042 0.464546
1409 2 0.544164 0.469046 0.473758
1410 2 0.545794 0.474404 0.470613
1417 2 0.539496 0.464613 0.471238
1418 2 0.541648 0.470213 0.468151
2328 2 0.548458 0.473366 0.476752
1408 2 0.542254 0.464053 0.477146
2327 2 0.550131 0.479424 0.474278
1653 2 0.552082 0.478261 0.480056
2329 2 0.546407 0.468043 0.479842
1411 2 0.547092 0.479997 0.467961
1473 2 0.450993 0.480967 0.470702
1465 2 0.453999 0.483711 0.464297
1466 2 0.450332 0.486821 0.468196
1502 2 0.445025 0.489443 0.478525
1503 2 0.445361 0.49544 0.47595
2302 2 0.447708 0.485257 0.474287
2303 2 0.447633 0.490976 0.471802
2304 2 0.450855 0.492931 0.465406
1501 2 0.445906 0.483363 0.480583
1224 2 0.44825 0.49692 0.469488
2305 2 0.451193 0.499152 0.464262
1412 2 0.547404 0.486272 0.464847
1413 2 0.549967 0.490474 0.468011
1638 2 0.553278 0.49028 0.474234
1646 2 0.553055 0.484791 0.476593
2246 2 0.554704 0.496345 0.47558
2324 2 0.547626 0.49357 0.463006
2325 2 0.551684 0.496088 0.469551
2326 2 0.550235 0.484573 0.470403
1637 2 0.55534 0.489984 0.479854
2034 2 0.454052 0.512432 0.46265
2033 2 0.45537 0.518048 0.462947
2215 2 0.452905 0.505115 0.462278
2294 2 0.445872 0.501506 0.474201
1765 2 0.447114 0.507366 0.47271
1766 2 0.445757 0.512333 0.477656
2212 2 0.448286 0.512914 0.471859
2213 2 0.450642 0.50911 0.466396
2214 2 0.448639 0.503117 0.468255
2031 2 0.451489 0.516598 0.468316
1774 2 0.444528 0.506267 0.478399
2211 2 0.44885 0.518595 0.474836
2293 2 0.443361 0.500655 0.480398
2245 2 0.553287 0.501979 0.472178
1962 2 0.54432 0.518041 0.462899
2244 2 0.547984 0.506622 0.463776
1223 2 0.549802 0.500478 0.465857
1944 2 0.555555 0.502279 0.477763
1945 2 0.548269 0.512357 0.465724
1946 2 0.551408 0.513527 0.471891
2155 2 0.551328 0.507052 0.469007
2156 2 0.553742 0.507718 0.474561
2157 2 0.553885 0.513644 0.477614
1955 2 0.547704 0.518294 0.468079
1947 2 0.550749 0.51899 0.474262
1943 2 0.555935 0.507878 0.480632
2030 2 0.457555 0.523294 0.463696
2023 2 0.45594 0.528387 0.470599
2024 2 0.458755 0.534232 0.473006
2027 2 0.454216 0.52306 0.468267
2028 2 0.451473 0.523376 0.473247
2209 2 0.454916 0.5309 0.475521
2210 2 0.451127 0.527162 0.478079
2019 2 0.457157 0.536341 0.479342
1768 2 0.448031 0.521666 0.480094
2022 2 0.45968 0.528797 0.465567
2016 2 0.465433 0.532759 0.462615
2017 2 0.461676 0.533721 0.467749
2010 2 0.4676 0.537698 0.465525
1972 2 0.530235 0.536138 0.461819
1971 2 0.535454 0.532388 0.463124
1959 2 0.537321 0.537991 0.47197
1966 2 0.533998 0.537237 0.466966
1941 2 0.552909 0.519485 0.480108
1965 2 0.538807 0.533199 0.467889
1948 2 0.54762 0.524288 0.472185
1949 2 0.546204 0.52915 0.475543
1956 2 0.544425 0.52331 0.466097
1957 2 0.542929 0.528807 0.469196
1958 2 0.542219 0.533533 0.473468
1964 2 0.539622 0.527824 0.463511
2158 2 0.550001 0.525058 0.478462
2160 2 0.544862 0.533744 0.479529
1950 2 0.540274 0.538402 0.477839
1992 2 0.478888 0.543315 0.463326
2018 2 0.464289 0.538663 0.470876
2012 2 0.461778 0.539839 0.476421
2002 2 0.473532 0.540375 0.463632
1994 2 0.479369 0.548873 0.472128
1995 2 0.472911 0.546696 0.473579
1996 2 0.47672 0.550475 0.477246
2003 2 0.475919 0.545307 0.468175
2004 2 0.467286 0.543516 0.474753
2011 2 0.4701 0.542382 0.469542
1997 2 0.471 0.548003 0.478762
2005 2 0.464902 0.544197 0.480285
2142 2 0.484959 0.54436 0.461584
1993 2 0.482544 0.547526 0.467177
2121 2 0.494798 0.549014 0.465043
2139 2 0.483172 0.552629 0.476751
2113 2 0.496616 0.554683 0.47554
2114 2 0.490029 0.554083 0.475979
2117 2 0.498896 0.552102 0.470033
2118 2 0.492278 0.552048 0.470839
2140 2 0.486152 0.550957 0.471328
2141 2 0.488301 0.548459 0.465926
2107 2 0.500355 0.556444 0.480067
2120 2 0.500911 0.548455 0.463943
2119 2 0.507972 0.547607 0.463343
2105 2 0.513355 0.553896 0.47775
2106 2 0.507297 0.555716 0.479407
2110 2 0.515604 0.551152 0.472429
2111 2 0.509086 0.552715 0.472652
2112 2 0.503549 0.554229 0.474686
2115 2 0.511299 0.549891 0.468034
2116 2 0.504548 0.550927 0.468186
2148 2 0.514081 0.545941 0.462959
2149 2 0.517674 0.547472 0.467185
1978 2 0.524955 0.540075 0.461902
1983 2 0.52013 0.542538 0.461604
2104 2 0.519617 0.55212 0.477863
1960 2 0.535909 0.542499 0.477978
1967 2 0.532322 0.542225 0.471941
1968 2 0.530546 0.546326 0.477188
1973 2 0.528807 0.541396 0.466894
1974 2 0.527192 0.546084 0.472426
1979 2 0.523696 0.544708 0.467095
2150 2 0.521384 0.548726 0.472292
2151 2 0.525087 0.54973 0.478124
1301 2 0.495872 0.44161 0.489621
1305 2 0.495329 0.440796 0.495478
2408 2 0.489131 0.441516 0.49774
1309 2 0.489809 0.44205 0.49133
1300 2 0.50151 0.440703 0.493388
1294 2 0.506278 0.440849 0.497374
1295 2 0.501224 0.442027 0.486651
1288 2 0.506763 0.44154 0.490337
2400 2 0.512067 0.441753 0.496384
2404 2 0.500619 0.440525 0.4996
1491 2 0.460526 0.459209 0.481576
2296 2 0.459116 0.456924 0.494261
2297 2 0.460091 0.457591 0.487379
1496 2 0.455179 0.460775 0.498064
1497 2 0.455697 0.461113 0.491271
1489 2 0.470826 0.451302 0.481288
2295 2 0.463352 0.453149 0.496678
1493 2 0.463951 0.453537 0.49033
1490 2 0.464827 0.454554 0.484166
1313 2 0.478201 0.444815 0.495329
1314 2 0.472878 0.447061 0.497722
1492 2 0.468696 0.450707 0.486992
1494 2 0.468416 0.449927 0.493555
2375 2 0.473639 0.447384 0.490907
2376 2 0.479841 0.445095 0.4888
2377 2 0.47472 0.448059 0.484536
1311 2 0.480741 0.446182 0.482213
1307 2 0.486535 0.444916 0.480987
1302 2 0.497231 0.443105 0.481992
1306 2 0.491728 0.442906 0.485058
1310 2 0.485006 0.443505 0.487642
1312 2 0.483675 0.443022 0.49424
1287 2 0.513296 0.442682 0.490548
1289 2 0.508231 0.442788 0.485201
1280 2 0.513624 0.443987 0.484597
1279 2 0.518609 0.44391 0.492404
2398 2 0.517286 0.442994 0.499509
1271 2 0.518945 0.445329 0.486184
1272 2 0.522747 0.447928 0.481646
1405 2 0.52803 0.449246 0.48619
1406 2 0.532883 0.451276 0.490303
1414 2 0.532387 0.452545 0.483644
2393 2 0.523909 0.446465 0.48917
2394 2 0.528327 0.447937 0.493889
2333 2 0.535977 0.452687 0.495612
1270 2 0.522526 0.445078 0.496213
2334 2 0.53188 0.44974 0.498895
1407 2 0.53728 0.455667 0.485947
2331 2 0.53986 0.459381 0.481697
2332 2 0.538874 0.455473 0.491948
1673 2 0.54349 0.459668 0.493942
1671 2 0.54188 0.459321 0.488075
1674 2 0.540068 0.456138 0.498641
2298 2 0.456063 0.462543 0.485241
2299 2 0.453338 0.467311 0.482143
1500 2 0.447796 0.476801 0.482759
1498 2 0.452101 0.466322 0.488401
1499 2 0.449598 0.471773 0.485378
1507 2 0.451829 0.465472 0.495167
1508 2 0.44642 0.475727 0.489042
1515 2 0.448625 0.470863 0.492127
1521 2 0.44614 0.474742 0.496067
1514 2 0.448708 0.469478 0.499284
1516 2 0.4444 0.480368 0.492786
1522 2 0.444185 0.479224 0.499821
1659 2 0.550431 0.472943 0.482782
2330 2 0.544057 0.463132 0.483761
1657 2 0.55303 0.473094 0.495949
1658 2 0.55179 0.47289 0.48866
1663 2 0.550298 0.468661 0.492863
1664 2 0.54788 0.467439 0.485668
1668 2 0.546457 0.464046 0.490321
1651 2 0.555079 0.478562 0.492216
1652 2 0.553825 0.478357 0.486276
1667 2 0.547897 0.464668 0.496626
1650 2 0.555603 0.478929 0.499561
1524 2 0.441243 0.491295 0.495346
2290 2 0.440594 0.497221 0.498612
2291 2 0.440983 0.498264 0.492438
1518 2 0.441697 0.49304 0.488474
2292 2 0.441878 0.499777 0.486755
1523 2 0.44242 0.485314 0.496213
1511 2 0.443187 0.494593 0.482426
1517 2 0.442641 0.487114 0.490217
1509 2 0.444762 0.481921 0.486528
1510 2 0.443364 0.488278 0.484604
2247 2 0.556669 0.49629 0.481419
1645 2 0.554691 0.483877 0.482336
1644 2 0.556367 0.483935 0.488834
1636 2 0.55669 0.489374 0.485211
1643 2 0.557195 0.484145 0.495353
1635 2 0.558014 0.489312 0.491369
2248 2 0.558262 0.495305 0.487229
2249 2 0.559107 0.496258 0.494183
1634 2 0.558597 0.490363 0.496932
2250 2 0.55936 0.495713 0.499691
1789 2 0.441134 0.503953 0.491825
1790 2 0.441489 0.50958 0.496223
1783 2 0.442119 0.509888 0.49017
1782 2 0.442279 0.5056 0.485
1795 2 0.440617 0.503932 0.498288
1767 2 0.445532 0.517062 0.481873
1775 2 0.44373 0.511551 0.483565
1776 2 0.443664 0.515704 0.489382
1784 2 0.442572 0.515487 0.495733
1940 2 0.555784 0.51381 0.483439
1942 2 0.557424 0.502524 0.483782
1936 2 0.55701 0.513641 0.489794
1927 2 0.556667 0.517969 0.499655
1939 2 0.557657 0.507559 0.486955
1930 2 0.559476 0.50252 0.496488
1931 2 0.558495 0.507878 0.492802
1935 2 0.55883 0.501634 0.490243
1926 2 0.557957 0.513471 0.496068
1919 2 0.559052 0.508418 0.498926
1770 2 0.453094 0.532143 0.481693
1769 2 0.449181 0.526772 0.484325
1777 2 0.446113 0.521407 0.486539
1778 2 0.447356 0.526491 0.490431
1779 2 0.451347 0.532285 0.4878
1785 2 0.444645 0.521331 0.493496
2208 2 0.455035 0.536603 0.485284
1787 2 0.449922 0.531679 0.494459
1771 2 0.45348 0.536365 0.492082
1786 2 0.446846 0.526714 0.49698
1780 2 0.452348 0.535643 0.498222
1792 2 0.444083 0.520539 0.49948
1937 2 0.554952 0.519311 0.486626
1932 2 0.555944 0.519648 0.493665
2159 2 0.548626 0.530413 0.48305
1928 2 0.553712 0.524163 0.490595
1929 2 0.549254 0.533216 0.495238
1933 2 0.550363 0.530161 0.489371
1934 2 0.547081 0.5349 0.488798
1938 2 0.551811 0.524753 0.483974
1921 2 0.552535 0.527501 0.495105
2161 2 0.543863 0.537283 0.483986
1913 2 0.554613 0.524054 0.499668
1923 2 0.545356 0.538344 0.494312
1772 2 0.456449 0.540448 0.495801
2207 2 0.457969 0.540937 0.489481
2013 2 0.459594 0.540546 0.482927
2206 2 0.461281 0.544863 0.493416
1773 2 0.459909 0.544094 0.499965
2137 2 0.474069 0.551324 0.483638
1998 2 0.468216 0.54813 0.484327
2006 2 0.462674 0.544735 0.486535
2088 2 0.469215 0.550811 0.495769
2096 2 0.477459 0.554127 0.488607
2135 2 0.466311 0.548208 0.49035
2136 2 0.471878 0.551635 0.489428
2205 2 0.464455 0.547935 0.497611
2087 2 0.474841 0.55364 0.495259
2138 2 0.480029 0.553355 0.482454
2095 2 0.480761 0.555776 0.493703
2108 2 0.493152 0.556311 0.481318
2109 2 0.486549 0.555138 0.48141
2102 2 0.490629 0.55734 0.486584
2103 2 0.483791 0.556003 0.487408
2131 2 0.484574 0.557393 0.498733
2081 2 0.51823 0.556366 0.494251
2090 2 0.513692 0.557104 0.489239
2098 2 0.517289 0.55455 0.483045
2099 2 0.51169 0.556411 0.483596
2100 2 0.504576 0.557527 0.484639
2089 2 0.520227 0.55505 0.488922
2097 2 0.523094 0.552645 0.48391
1952 2 0.533997 0.545969 0.482558
1953 2 0.533279 0.548061 0.48859
1961 2 0.528699 0.549637 0.483127
2080 2 0.524739 0.553783 0.494001
2152 2 0.527712 0.551658 0.488329
2153 2 0.5305 0.550731 0.49374
2164 2 0.535893 0.547332 0.494395
2163 2 0.537807 0.544473 0.488496
2125 2 0.527921 0.552386 0.499735
2126 2 0.522259 0.555159 0.499538
2154 2 0.53323 0.549383 0.499864
1951 2 0.539513 0.541744 0.483548
2162 2 0.542681 0.54027 0.489833
1916 2 0.540316 0.543323 0.494395
2101 2 0.496992 0.55786 0.485879
2094 2 0.487265 0.557864 0.492897
2084 2 0.498844 0.559412 0.496498
2085 2 0.491524 0.559063 0.497676
2093 2 0.494213 0.558596 0.491838
2092 2 0.500644 0.558817 0.490375
2091 2 0.507529 0.558359 0.48945
2082 2 0.512349 0.558114 0.495763
2083 2 0.505376 0.559177 0.495369
1249 2 0.48865 0.441741 0.503928
1250 2 0.492693 0.441399 0.508932
2406 2 0.494951 0.440784 0.502133
1251 2 0.497615 0.442018 0.513455
1255 2 0.498798 0.440779 0.506562
1256 2 0.503364 0.441562 0.511148
1260 2 0.509297 0.442024 0.509134
1264 2 0.510926 0.441471 0.502749
2402 2 0.504947 0.440822 0.503902
1495 2 0.459339 0.456373 0.501014
1504 2 0.460006 0.456504 0.508185
1316 2 0.461225 0.457051 0.51476
1505 2 0.455933 0.460104 0.50476
2372 2 0.456965 0.4605 0.511797
2371 2 0.458755 0.460851 0.518882
1218 2 0.467076 0.450395 0.500602
2374 2 0.463466 0.453135 0.504445
2373 2 0.464693 0.453363 0.511527
2412 2 0.477311 0.445045 0.50203
2414 2 0.47192 0.447601 0.504154
1225 2 0.469912 0.450456 0.513341
1226 2 0.475087 0.44776 0.514518
1315 2 0.466521 0.453907 0.517588
2424 2 0.46795 0.450234 0.507342
1234 2 0.475014 0.446581 0.508789
1235 2 0.479991 0.445333 0.513048
2410 2 0.482991 0.442957 0.500768
1242 2 0.481806 0.443568 0.506634
1243 2 0.487034 0.442657 0.510165
1236 2 0.484353 0.444713 0.516681
1244 2 0.4909 0.442953 0.51554
1245 2 0.495421 0.443457 0.519133
1261 2 0.513931 0.443451 0.512671
1257 2 0.508264 0.443141 0.516075
1267 2 0.515928 0.442886 0.506415
1252 2 0.50201 0.442974 0.517842
1266 2 0.518347 0.445789 0.517309
1217 2 0.530839 0.449273 0.505141
1268 2 0.520236 0.444819 0.510201
1269 2 0.521733 0.444603 0.503262
1403 2 0.533964 0.452741 0.513886
1404 2 0.529391 0.449332 0.511074
2335 2 0.536735 0.453038 0.502639
2395 2 0.52548 0.4466 0.50776
2396 2 0.526442 0.446785 0.500585
2397 2 0.52398 0.447346 0.514959
2336 2 0.535509 0.45288 0.508343
1402 2 0.52877 0.45049 0.517389
1401 2 0.53864 0.457644 0.517129
1672 2 0.540848 0.456904 0.505345
2337 2 0.539254 0.456561 0.511228
1670 2 0.544456 0.460121 0.500007
1669 2 0.544587 0.461104 0.507642
1506 2 0.452365 0.464465 0.501857
1512 2 0.452656 0.464685 0.509018
1513 2 0.449767 0.468757 0.505685
1519 2 0.454065 0.464783 0.514725
1520 2 0.450158 0.469868 0.512664
1525 2 0.44836 0.474633 0.516282
1526 2 0.446979 0.474246 0.50941
1527 2 0.446656 0.473972 0.502899
1530 2 0.445549 0.479249 0.5127
1531 2 0.444103 0.480233 0.505918
2369 2 0.451851 0.469461 0.518454
1534 2 0.447002 0.480106 0.519173
1662 2 0.550614 0.468751 0.500355
2338 2 0.543341 0.461613 0.514146
1654 2 0.552557 0.476551 0.516524
1655 2 0.553402 0.475144 0.509067
1656 2 0.553474 0.474094 0.502781
1660 2 0.550508 0.471363 0.513535
1661 2 0.550509 0.469265 0.506885
1665 2 0.547382 0.465529 0.511549
1666 2 0.547666 0.464619 0.504007
2339 2 0.546545 0.467052 0.517729
1649 2 0.555858 0.479888 0.505823
1648 2 0.555074 0.480639 0.511569
1529 2 0.441017 0.492388 0.502053
1533 2 0.441827 0.488778 0.506785
1804 2 0.441081 0.494925 0.507971
1528 2 0.442366 0.485377 0.502604
2288 2 0.442653 0.490806 0.513268
2287 2 0.442335 0.496734 0.515244
1532 2 0.443547 0.484535 0.511184
1535 2 0.444538 0.485822 0.517407
1631 2 0.557052 0.49298 0.516467
1640 2 0.556491 0.486908 0.51386
1641 2 0.557123 0.485212 0.507591
1642 2 0.557531 0.48461 0.501069
1647 2 0.554251 0.482363 0.517661
1632 2 0.558357 0.491191 0.509835
1633 2 0.558686 0.490933 0.503307
2251 2 0.55911 0.49651 0.506736
2252 2 0.558069 0.49765 0.513381
2289 2 0.440594 0.500552 0.504331
1796 2 0.441054 0.509215 0.501977
1800 2 0.441216 0.506323 0.506751
1805 2 0.441279 0.501041 0.510261
1801 2 0.442446 0.507123 0.513342
1791 2 0.442416 0.514972 0.502246
1797 2 0.44257 0.513382 0.50799
1802 2 0.443447 0.513044 0.513736
1806 2 0.445638 0.516798 0.518318
1807 2 0.442916 0.502672 0.517167
1803 2 0.444763 0.518669 0.512206
1 1 0.5 0.5 0.5
2 1 0.5 0.5 0.5
3 1 0.5 0.5 0.5
4 1 0.5 0.5 0.5
5 1 0.5 0.5 0.5
6 1 0.5 0.5 0.5
7 1 0.5 0.5 0.5
8 1 0.5 0.5 0.5
9 1 0.5 0.5 0.5
10 1 0.5 0.5 0.5
11 1 0.5 0.5 0.5
12 1 0.5 0.5 0.5
13 1 0.5 0.5 0.5
14 1 0.5 0.5 0.5
15 1 0.5 0.5 0.5
16 1 0.5 0.5 0.5
17 1 0.5 0.5 0.5
18 1 0.5 0.5 0.5
19 1 0.5 0.5 0.5
20 1 0.5 0.5 0.5
21 1 0.5 0.5 0.5
22 1 0.5 0.5 0.5
23 1 0.5 0.5 0.5
24 1 0.5 0.5 0.5
25 1 0.5 0.5 0.5
26 1 0.5 0.5 0.5
27 1 0.5 0.5 0.5
28 1 0.5 0.5 0.5
29 1 0.5 0.5 0.5
30 1 0.5 0.5 0.5
31 1 0.5 0.5 0.5
32 1 0.5 0.5 0.5
33 1 0.5 0.5 0.5
34 1 0.5 0.5 0.5
35 1 0.5 0.5 0.5
36 1 0.5 0.5 0.5
37 1 0.5 0.5 0.5
38 1 0.5 0.5 0.5
39 1 0.5 0.5 0.5
40 1 0.5 0.5 0.5
41 1 0.5 0.5 0.5
42 1 0.5 0.5 0.5
43 1 0.5 0.5 0.5
44 1 0.5 0.5 0.5
45 1 0.5 0.5 0.5
46 1 0.5 0.5 0.5
47 1 0.5 0.5 0.5
48 1 0.5 0.5 0.5
49 1 0.5 0.5 0.5
50 1 0.5 0.5 0.5
51 1 0.5 0.5 0.5
52 1 0.5 0.5 0.5
53 1 0.5 0.5 0.5
54 1 0.5 0.5 0.5
55 1 0.5 0.5 0.5
56 1 0.5 0.5 0.5
57 1 0.5 0.5 0.5
58 1 0.5 0.5 0.5
59 1 0.5 0.5 0.5
60 1 0.5 0.5 0.5
61 1 0.5 0.5 0.5
62 1 0.5 0.5 0.5
63 1 0.5 0.5 0.5
64 1 0.5 0.5 0.5
65 1 0.5 0.5 0.5
66 1 0.5 0.5 0.5
67 1 0.5 0.5 0.5
68 1 0.5 0.5 0.5
69 1 0.5 0.5 0.5
70 1 0.5 0.5 0.5
71 1 0.5 0.5 0.5
72 1 0.5 0.5 0.5
73 1 0.5 0.5 0.5
74 1 0.5 0.5 0.5
75 1 0.5 0.5 0.5
76 1 0.5 0.5 0.5
77 1 0.5 0.5 0.5
78 1 0.5 0.5 0.5
79 1 0.5 0.5 0.5
80 1 0.5 0.5 0.5
81 1 0.5 0.5 0.5
82 1 0.5 0.5 0.5
83 1 0.5 0.5 0.5
84 1 0.5 0.5 0.5
85 1 0.5 0.5 0.5
86 1 0.5 0.5 0.5
87 1 0.5 0.5 0.5
88 1 0.5 0.5 0.5
89 1 0.5 0.5 0.5
90 1 0.5 0.5 0.5
91 1 0.5 0.5 0.5
92 1 0.5 0.5 0.5
93 1 0.5 0.5 0.5
94 1 0.5 0.5 0.5
95 1 0.5 0.5 0.5
96 1 0.5 0.5 0.5
97 1 0.5 0.5 0.5
98 1 0.5 0.5 0.5
99 1 0.5 0.5 0.5
100 1 0.5 0.5 0.5
101 1 0.5 0.5 0.5
102 1 0.5 0.5 0.5
103 1 0.5 0.5 0.5
104 1 0.5 0.5 0.5
105 1 0.5 0.5 0.5
106 1 0.5 0.5 0.5
107 1 0.5 0.5 0.5
108 1 0.5 0.5 0.5
109 1 0.5 0.5 0.5
110 1 0.5 0.5 0.5
111 1 0.5 0.5 0.5
112 1 0.5 0.5 0.5
113 1 0.5 0.5 0.5
114 1 0.5 0.5 0.5
115 1 0.5 0.5 0.5
116 1 0.5 0.5 0.5
117 1 0.5 0.5 0.5
118 1 0.5 0.5 0.5
119 1 0.5 0.5 0.5
120 1 0.5 0.5 0.5
121 1 0.5 0.5 0.5
122 1 0.5 0.5 0.5
123 1 0.5 0.5 0.5
124 1 0.5 0.5 0.5
125 1 0.5 0.5 0.5
126 1 0.5 0.5 0.5
127 1 0.5 0.5 0.5
128 1 0.5 0.5 0.5
129 1 0.5 0.5 0.5
130 1 0.5 0.5 0.5
131 1 0.5 0.5 0.5
132 1 0.5 0.5 0.5
133 1 0.5 0.5 0.5
134 1 0.5 0.5 0.5
135 1 0.5 0.5 0.5
136 1 0.5 0.5 0.5
137 1 0.5 0.5 0.5
138 1 0.5 0.5 0.5
139 1 0.5 0.5 0.5
140 1 0.5 0.5 0.5
141 1 0.5 0.5 0.5
142 1 0.5 0.5 0.5
143 1 0.5 0.5 0.5
144 1 0.5 0.5 0.5
145 1 0.5 0.5 0.5
146 1 0.5 0.5 0.5
147 1 0.5 0.5 0.5
148 1 0.5 0.5 0.5
149 1 0.5 0.5 0.5
150 1 0.5 0.5 0.5
151 1 0.5 0.5 0.5
152 1 0.5 0.5 0.5
153 1 0.5 0.5 0.5
154 1 0.5 0.5 0.5
155 1 0.5 0.5 0.5
156 1 0.5 0.5 0.5
157 1 0.5 0.5 0.5
158 1 0.5 0.5 0.5
159 1 0.5 0.5 0.5
160 1 0.5 0.5 0.5
161 1 0.5 0.5 0.5
162 1 0.5 0.5 0.5
163 1 0.5 0.5 0.5
164 1 0.5 0.5 0.5
165 1 0.5 0.5 0.5
166 1 0.5 0.5 0.5
167 1 0.5 0.5 0.5
168 1 0.5 0.5 0.5
169 1 0.5 0.5 0.5
170 1 0.5 0.5 0.5
171 1 0.5 0.5 0.5
172 1 0.5 0.5 0.5
173 1 0.5 0.5 0.5
174 1 0.5 0.5 0.5
175 1 0.5 0.5 0.5
176 1 0.5 0.5 0.5
177 1 0.5 0.5 0.5
178 1 0.5 0.5 0.5
179 1 0.5 0.5 0.5
180 1 0.5 0.5 0.5
181 1 0.5 0.5 0.5
182 1 0.5 0.5 0.5
183 1 0.5 0.5 0.5
184 1 0.5 0.5 0.5
185 1 0.5 0.5 0.5
186 1 0.5 0.5 0.5
187 1 0.5 0.5 0.5
188 1 0.5 0.5 0.5
189 1 0.5 0.5 0.5
190 1 0.5 0.5 0.5
191 1 0.5 0.5 0.5
192 1 0.5 0.5 0.5
193 1 0.5 0.5 0.5
194 1 0.5 0.5 0.5
195 1 0.5 0.5 0.5
196 1 0.5 0.5 0.5
197 1 0.5 0.5 0.5
198 1 0.5 0.5 0.5
199 1 0.5 0.5 0.5
200 1 0.5 0.5 0.5
201 1 0.5 0.5 0.5
202 1 0.5 0.5 0.5
203 1 0.5 0.5 0.5
204 1 0.5 0.5 0.5
205 1 0.5 0.5 0.5
206 1 0.5 0.5 0.5
207 1 0.5 0.5 0.5
208 1 0.5 0.5 0.5
209 1 0.5 0.5 0.5
210 1 0.5 0.5 0.5
211 1 0.5 0.5 0.5
212 1 0.5 0.5 0.5
213 1 0.5 0.5 0.5
214 1 0.5 0.5 0.5
215 1 0.5 0.5 0.5
216 1 0.5 0.5 0.5
217 1 0.5 0.5 0.5
218 1 0.5 0.5 0.5
219 1 0.5 0.5 0.5
220 1 0.5 0.5 0.5
221 1 0.5 0.5 0.5
222 1 0.5 0.5 0.5
223 1 0.5 0.5 0.5
224 1 0.5 0.5 0.5
225 1 0.5 0.5 0.5
226 1 0.5 0.5 0.5
227 1 0.5 0.5 0.5
228 1 0.5 0.5 0.5
229 1 0.5 0.5 0.5
230 1 0.5 0.5 0.5
231 1 0.5 0.5 0.5
232 1 0.5 0.5 0.5
233 1 0.5 0.5 0.5
234 1 0.5 0.5 0.5
235 1 0.5 0.5 0.5
236 1 0.5 0.5 0.5
237 1 0.5 0.5 0.5
238 1 0.5 0.5 0.5
239 1 0.5 0.5 0.5
240 1 0.5 0.5 0.5
241 1 0.5 0.5 0.5
242 1 0.5 0.5 0.5
243 1 0.5 0.5 0.5
244 1 0.5 0.5 0.5
245 1 0.5 0.5 0.5
246 1 0.5 0.5 0.5
247 1 0.5 0.5 0.5
248 1 0.5 0.5 0.5
249 1 0.5 0.5 0.5
250 1 0.5 0.5 0.5
251 1 0.5 0.5 0.5
252 1 0.5 0.5 0.5
253 1 0.5 0.5 0.5
254 1 0.5 0.5 0.5
255 1 0.5 0.5 0.5
256 1 0.5 0.5 0.5
257 1 0.5 0.5 0.5
258 1 0.5 0.5 0.5
259 1 0.5 0.5 0.5
260 1 0.5 0.5 0.5
261 1 0.5 0.5 0.5
262 1 0.5 0.5 0.5
263 1 0.5 0.5 0.5
264 1 0.5 0.5 0.5
265 1 0.5 0.5 0.5
266 1 0.5 0.5 0.5
267 1 0.5 0.5 0.5
268 1 0.5 0.5 0.5
269 1 0.5 0.5 0.5
270 1 0.5 0.5 0.5
271 1 0.5 0.5 0.5
272 1 0.5 0.5 0.5
273 1 0.5 0.5 0.5
274 1 0.5 0.5 0.5
275 1 0.5 0.5 0.5
276 1 0.5 0.5 0.5
277 1 0.5 0.5 0.5
278 1 0.5 0.5 0.5
279 1 0.5 0.5 0.5
280 1 0.5 0.5 0.5
281 1 0.5 0.5 0.5
282 1 0.5 0.5 0.5
283 1 0.5 0.5 0.5
284 1 0.5 0.5 0.5
285 1 0.5 0.5 0.5
286 1 0.5 0.5 0.5
287 1 0.5 0.5 0.5
288 1 0.5 0.5 0.5
289 1 0.5 0.5 0.5
290 1 0.5 0.5 0.5
291 1 0.5 0.5 0.5
292 1 0.5 0.5 0.5
293 1 0.5 0.5 0.5
294 1 0.5 0.5 0.5
295 1 0.5 0.5 0.5
296 1 0.5 0.5 0.5
297 1 0.5 0.5 0.5
298 1 0.5 0.5 0.5
299 1 0.5 0.5 0.5
300 1 0.5 0.5 0.5
301 1 0.5 0.5 0.5
302 1 0.5 0.5 0.5
303 1 0.5 0.5 0.5
304 1 0.5 0.5 0.5
305 1 0.5 0.5 0.5
306 1 0.5 0.5 0.5
307 1 0.5 0.5 0.5
308 1 0.5 0.5 0.5
309 1 0.5 0.5 0.5
310 1 0.5 0.5 0.5
311 1 0.5 0.5 0.5
312 1 0.5 0.5 0.5
313 1 0.5 0.5 0.5
314 1 0.5 0.5 0.5
315 1 0.5 0.5 0.5
316 1 0.5 0.5 0.5
317 1 0.5 0.5 0.5
318 1 0.5 0.5 0.5
319 1 0.5 0.5 0.5
320 1 0.5 0.5 0.5
321 1 0.5 0.5 0.5
322 1 0.5 0.5 0.5
323 1 0.5 0.5 0.5
324 1 0.5 0.5 0.5
325 1 0.5 0.5 0.5
326 1 0.5 0.5 0.5
327 1 0.5 0.5 0.5
328 1 0.5 0.5 0.5
329 1 0.5 0.5 0.5
330 1 0.5 0.5 0.5
331 1 0.5 0.5 0.5
332 1 0.5 0.5 0.5
333 1 0.5 0.5 0.5
334 1 0.5 0.5 0.5
335 1 0.5 0.5 0.5