ITEM: TIMESTEP
50000
ITEM: NUMBER OF ATOMS
2424
ITEM: BOX BOUNDS pp pp pp
-50 50
-50 50
-50 50
ITEM: ATOMS id type xs ys zs
1723 2 0.491302 0.496234 0.397632
2228 2 0.492227 0.488715 0.400899
2229 2 0.499612 0.491638 0.39732
2227 2 0.499281 0.485212 0.40179
1713 2 0.502823 0.499716 0.395417
1708 2 0.506963 0.49319 0.397873
1707 2 0.513953 0.493859 0.401895
1712 2 0.506327 0.486485 0.402162
1733 2 0.488681 0.506897 0.40054
2231 2 0.496486 0.510451 0.398882
1698 2 0.495119 0.503498 0.39602
1732 2 0.485734 0.500288 0.401416
1724 2 0.510945 0.50121 0.398779
2230 2 0.50445 0.507666 0.397366
1704 2 0.510499 0.51002 0.401613
1691 2 0.503725 0.514148 0.401871
1709 2 0.515751 0.503002 0.403394
2225 2 0.490403 0.475942 0.417512
2314 2 0.497975 0.473916 0.417735
1719 2 0.495272 0.477789 0.411847
1720 2 0.484851 0.475975 0.422833
1721 2 0.489029 0.480307 0.411441
1716 2 0.499531 0.480441 0.407185
1729 2 0.484194 0.479644 0.417132
1213 2 0.503175 0.476548 0.413358
1717 2 0.51087 0.478052 0.414672
1448 2 0.505694 0.473773 0.419129
2315 2 0.512155 0.475117 0.420847
2317 2 0.516527 0.479549 0.418294
1746 2 0.476461 0.495824 0.413958
1751 2 0.473205 0.498249 0.419136
1745 2 0.475484 0.490805 0.417709
1737 2 0.478932 0.485258 0.417439
1738 2 0.48002 0.490591 0.410288
1739 2 0.479809 0.499789 0.408443
2226 2 0.491783 0.483318 0.40554
1722 2 0.485879 0.488083 0.405768
1731 2 0.483418 0.495314 0.404372
1730 2 0.483598 0.484284 0.411912
1715 2 0.512311 0.485737 0.40621
1718 2 0.507086 0.480793 0.408658
1714 2 0.514766 0.483397 0.411136
1711 2 0.517383 0.490149 0.407445
1703 2 0.518698 0.497427 0.406463
1710 2 0.520118 0.485582 0.41522
1705 2 0.521596 0.491526 0.41274
1693 2 0.525707 0.492711 0.419069
2319 2 0.523767 0.486442 0.420719
1706 2 0.526232 0.498717 0.417694
1702 2 0.522476 0.498866 0.411798
1747 2 0.478925 0.507598 0.41149
1752 2 0.475779 0.502909 0.414635
1748 2 0.475432 0.508792 0.418208
1741 2 0.479556 0.513446 0.415197
1758 2 0.476548 0.515187 0.421844
1725 2 0.489931 0.513577 0.404007
1735 2 0.496528 0.51709 0.40417
1740 2 0.482959 0.50665 0.405802
1726 2 0.489924 0.518997 0.409918
1734 2 0.484385 0.513423 0.408474
1743 2 0.484668 0.518432 0.414106
1682 2 0.515299 0.511244 0.406551
1697 2 0.514347 0.5168 0.410922
2233 2 0.508781 0.516509 0.40596
1681 2 0.519641 0.516844 0.417249
1696 2 0.519847 0.511403 0.411982
1690 2 0.520353 0.505125 0.409455
1701 2 0.52481 0.504115 0.416205
1689 2 0.524041 0.510289 0.417924
1700 2 0.527999 0.503654 0.422839
1687 2 0.523666 0.515503 0.422344
1754 2 0.481346 0.519372 0.419371
1742 2 0.489473 0.523123 0.416825
1736 2 0.489475 0.525999 0.42176
1728 2 0.496091 0.525802 0.417891
1727 2 0.495639 0.521978 0.411131
2232 2 0.502404 0.520346 0.408503
2223 2 0.501928 0.527618 0.420752
2237 2 0.51437 0.521526 0.417383
2224 2 0.502207 0.524179 0.414465
1683 2 0.50888 0.520918 0.411872
2238 2 0.50831 0.524883 0.418266
1680 2 0.518792 0.521162 0.422197
1453 2 0.476721 0.477877 0.43274
1461 2 0.473941 0.478128 0.438494
1452 2 0.479012 0.473231 0.438597
1744 2 0.480661 0.476795 0.42724
2384 2 0.491232 0.472883 0.42313
1449 2 0.499041 0.471314 0.423456
1451 2 0.488551 0.469546 0.433675
1460 2 0.484422 0.46971 0.43863
2313 2 0.487224 0.472019 0.428329
2385 2 0.493785 0.469822 0.428721
2311 2 0.482225 0.472926 0.43316
2383 2 0.495455 0.467456 0.434978
1450 2 0.490933 0.467045 0.43941
1459 2 0.497967 0.465425 0.440282
2386 2 0.500242 0.469103 0.428757
1445 2 0.51339 0.470289 0.434116
1447 2 0.50599 0.471307 0.425074
2316 2 0.511951 0.472039 0.427435
2318 2 0.517306 0.476003 0.425537
2387 2 0.507432 0.469121 0.431415
1278 2 0.502439 0.467156 0.434946
1277 2 0.508611 0.467356 0.437668
1443 2 0.518095 0.473544 0.432135
1442 2 0.51889 0.47172 0.438738
1444 2 0.51386 0.468311 0.440884
2382 2 0.503798 0.46519 0.441905
1439 2 0.522121 0.477888 0.429786
1438 2 0.523163 0.476084 0.435883
1433 2 0.527413 0.479644 0.439607
1437 2 0.523988 0.474183 0.442215
2312 2 0.478622 0.481437 0.423133
1750 2 0.474613 0.486883 0.423268
2310 2 0.475357 0.481848 0.428383
1454 2 0.472195 0.482758 0.434632
1463 2 0.469493 0.483543 0.4408
1755 2 0.471858 0.493217 0.424183
1759 2 0.469506 0.492773 0.430892
2308 2 0.468839 0.488221 0.435977
2309 2 0.471727 0.487222 0.429616
1760 2 0.46985 0.499104 0.426559
2306 2 0.467096 0.495025 0.436268
2307 2 0.466527 0.489872 0.441397
1446 2 0.52139 0.481129 0.423109
1434 2 0.526983 0.48209 0.433503
1694 2 0.528781 0.497182 0.424514
1692 2 0.530993 0.494348 0.43077
1699 2 0.528081 0.490483 0.425666
2320 2 0.52547 0.48367 0.427215
2321 2 0.529429 0.487696 0.431735
2322 2 0.53062 0.485288 0.438953
2323 2 0.532154 0.49158 0.436401
1675 2 0.534428 0.495555 0.441173
1684 2 0.533021 0.498198 0.435192
1756 2 0.471621 0.503684 0.423264
1763 2 0.467599 0.50016 0.4328
1762 2 0.465952 0.50108 0.439109
1753 2 0.4726 0.510085 0.424898
1757 2 0.46956 0.505679 0.429606
1761 2 0.470217 0.511627 0.431811
2218 2 0.471499 0.516434 0.434817
2219 2 0.474051 0.516269 0.428625
1764 2 0.467638 0.50715 0.435382
2217 2 0.468229 0.512328 0.438805
2215 2 0.465695 0.506979 0.441859
2020 2 0.470271 0.518107 0.44158
1695 2 0.527378 0.509687 0.423829
1688 2 0.530298 0.507078 0.429837
1685 2 0.531043 0.501321 0.42949
1677 2 0.532519 0.505677 0.435536
1678 2 0.527302 0.517904 0.434037
1679 2 0.52732 0.514236 0.428496
1686 2 0.530312 0.511883 0.434362
2242 2 0.533066 0.509647 0.440096
1676 2 0.534429 0.502017 0.440142
1969 2 0.530441 0.516017 0.439553
2239 2 0.52357 0.519057 0.427742
2220 2 0.478641 0.520332 0.425702
2014 2 0.476411 0.521385 0.431883
2009 2 0.474625 0.522393 0.438328
2008 2 0.479183 0.525895 0.436309
1749 2 0.483741 0.523889 0.423628
2221 2 0.494591 0.5285 0.42424
2007 2 0.487396 0.527515 0.427693
1999 2 0.481506 0.525201 0.429787
2222 2 0.491002 0.530759 0.43171
1220 2 0.496776 0.531131 0.430051
1990 2 0.484999 0.528895 0.434219
2143 2 0.489211 0.532139 0.438435
2123 2 0.495694 0.533208 0.437098
2000 2 0.483261 0.530084 0.440531
1987 2 0.513162 0.525746 0.423897
2146 2 0.500906 0.534534 0.440629
2234 2 0.502063 0.530249 0.427445
2235 2 0.50177 0.532557 0.434317
2236 2 0.507997 0.528328 0.425299
2144 2 0.507671 0.533054 0.438557
1989 2 0.512905 0.530582 0.436119
2145 2 0.507828 0.530797 0.431376
1984 2 0.514293 0.527508 0.429489
1980 2 0.519221 0.523998 0.428546
1975 2 0.518489 0.527311 0.435228
1985 2 0.517787 0.529976 0.441294
2240 2 0.522735 0.523092 0.433676
1981 2 0.522459 0.52595 0.440364
1976 2 0.526601 0.521477 0.439491
1284 2 0.501336 0.461393 0.459099
1462 2 0.470961 0.479173 0.444562
1469 2 0.475236 0.474606 0.444476
1476 2 0.472675 0.475186 0.449738
1468 2 0.47735 0.471025 0.450032
1481 2 0.479327 0.468268 0.455431
1477 2 0.474644 0.471752 0.455076
1483 2 0.469787 0.476455 0.456091
1482 2 0.472933 0.472143 0.460014
1474 2 0.480552 0.470374 0.444192
1479 2 0.467045 0.479063 0.460943
1471 2 0.468675 0.480281 0.450535
1467 2 0.485927 0.467501 0.443775
1292 2 0.49666 0.462084 0.45683
1475 2 0.482957 0.4672 0.449798
2381 2 0.492495 0.465164 0.444845
1299 2 0.491094 0.462906 0.456758
2380 2 0.489057 0.464797 0.450148
1304 2 0.494814 0.463235 0.450894
1480 2 0.485316 0.465124 0.455152
1293 2 0.498674 0.464034 0.446893
2378 2 0.481625 0.465692 0.460352
2379 2 0.487475 0.463096 0.461108
1285 2 0.501448 0.462408 0.45293
1275 2 0.507315 0.462852 0.455695
1286 2 0.505069 0.463958 0.448165
1276 2 0.510338 0.465904 0.44472
2388 2 0.515264 0.466698 0.447858
2389 2 0.515529 0.465415 0.454726
2390 2 0.510109 0.464202 0.450918
1283 2 0.511565 0.463207 0.458814
1273 2 0.516986 0.46504 0.461214
1441 2 0.519493 0.470312 0.444325
1436 2 0.52408 0.472353 0.448702
1440 2 0.519754 0.468415 0.45151
1432 2 0.52793 0.477362 0.446343
1435 2 0.520773 0.467882 0.458
1431 2 0.524843 0.471368 0.454952
1425 2 0.528293 0.475636 0.452201
1410 2 0.529549 0.474926 0.458806
1426 2 0.532303 0.479643 0.456952
1427 2 0.531552 0.480576 0.450586
1417 2 0.525619 0.470437 0.461371
2214 2 0.460832 0.499148 0.461524
1472 2 0.46658 0.482165 0.455602
1455 2 0.465052 0.496103 0.442427
1470 2 0.467222 0.485055 0.446699
2304 2 0.462051 0.493365 0.45899
1456 2 0.46357 0.497456 0.449198
1457 2 0.463233 0.492002 0.453154
1464 2 0.464655 0.491432 0.447156
1465 2 0.46532 0.486383 0.45197
1473 2 0.463517 0.488073 0.457697
1458 2 0.462071 0.498736 0.455667
1421 2 0.533298 0.488895 0.442666
1413 2 0.53632 0.491075 0.453425
1420 2 0.5342 0.48695 0.449057
1428 2 0.53089 0.482151 0.444695
2324 2 0.535698 0.49349 0.446829
1419 2 0.534725 0.484966 0.455069
1412 2 0.537196 0.489159 0.459318
2326 2 0.538175 0.494725 0.458306
2325 2 0.537059 0.497363 0.452066
1411 2 0.535417 0.483739 0.461257
2305 2 0.464364 0.502171 0.445432
2025 2 0.467007 0.51351 0.444939
2029 2 0.464495 0.508942 0.448553
2030 2 0.464689 0.515077 0.457224
2032 2 0.466014 0.514865 0.451495
2034 2 0.463242 0.509289 0.454737
2216 2 0.463034 0.503877 0.45175
1224 2 0.461632 0.504312 0.457825
2033 2 0.462601 0.510684 0.461155
1223 2 0.536244 0.500118 0.445931
2241 2 0.533158 0.513343 0.445038
2243 2 0.535139 0.506599 0.444824
1962 2 0.535754 0.509831 0.450228
1945 2 0.537301 0.507663 0.456138
1954 2 0.534828 0.517381 0.461067
2244 2 0.536984 0.503806 0.451832
1963 2 0.535073 0.514279 0.454896
1964 2 0.532872 0.516694 0.449998
2155 2 0.538305 0.500855 0.457182
1955 2 0.536891 0.512145 0.459811
2021 2 0.46923 0.519471 0.447729
1992 2 0.477763 0.527059 0.442615
2026 2 0.468125 0.520104 0.454199
2015 2 0.473187 0.523452 0.445028
2010 2 0.475478 0.528769 0.454836
2016 2 0.471756 0.524472 0.451468
2022 2 0.470823 0.52501 0.458173
2001 2 0.476512 0.527911 0.448548
2002 2 0.47861 0.532146 0.459057
2027 2 0.466999 0.520574 0.460136
1993 2 0.480138 0.531886 0.452865
2124 2 0.494373 0.534641 0.442793
2142 2 0.481595 0.530908 0.446237
1991 2 0.488325 0.53352 0.444536
2122 2 0.49219 0.535524 0.448726
2118 2 0.485652 0.533889 0.449798
2141 2 0.484198 0.534595 0.456405
2140 2 0.490849 0.536631 0.45422
2113 2 0.497595 0.537656 0.452715
2121 2 0.498557 0.536005 0.446112
1994 2 0.488695 0.537103 0.460211
2112 2 0.495031 0.538224 0.45891
1988 2 0.512226 0.533073 0.442437
2147 2 0.505471 0.53537 0.445095
2115 2 0.501961 0.538028 0.456241
2120 2 0.503623 0.536715 0.450492
1986 2 0.510032 0.535061 0.44886
2148 2 0.514294 0.534555 0.45357
2117 2 0.507988 0.537045 0.454801
2149 2 0.511857 0.536854 0.459345
1983 2 0.516218 0.53267 0.447431
1979 2 0.517952 0.534009 0.458379
1970 2 0.529818 0.519641 0.445012
1948 2 0.532418 0.520099 0.456608
1978 2 0.519952 0.531734 0.452534
1982 2 0.521627 0.528932 0.446647
1971 2 0.52963 0.522083 0.450909
1972 2 0.524917 0.527667 0.451998
1977 2 0.526297 0.524682 0.445968
1957 2 0.528698 0.525062 0.456162
1973 2 0.523633 0.530299 0.457648
2119 2 0.506105 0.538489 0.461301
1303 2 0.495812 0.460267 0.467914
1308 2 0.49103 0.460468 0.472398
1307 2 0.495885 0.459626 0.474695
1291 2 0.494606 0.461206 0.462413
1306 2 0.490875 0.45998 0.478599
1274 2 0.506152 0.461438 0.461889
1297 2 0.500604 0.460559 0.464863
1290 2 0.506915 0.460798 0.46793
1281 2 0.507116 0.459955 0.473941
1302 2 0.501398 0.459844 0.471096
1295 2 0.501728 0.459013 0.476876
1280 2 0.513187 0.461191 0.477719
1296 2 0.507837 0.45957 0.479731
1485 2 0.47701 0.468181 0.462666
1478 2 0.465713 0.479304 0.467365
1486 2 0.473404 0.470461 0.466928
1487 2 0.469701 0.474638 0.463805
1489 2 0.469224 0.474259 0.469329
1488 2 0.465733 0.4781 0.472968
1490 2 0.477982 0.466688 0.468752
1491 2 0.473023 0.469621 0.472695
2300 2 0.465023 0.47837 0.478888
2376 2 0.476421 0.466674 0.475929
2299 2 0.469089 0.473607 0.4754
1498 2 0.472182 0.469744 0.47901
1313 2 0.480594 0.463572 0.479593
1492 2 0.48069 0.464437 0.473274
1298 2 0.489377 0.461802 0.466346
2377 2 0.48275 0.464278 0.466116
1310 2 0.485482 0.46181 0.476639
1311 2 0.485724 0.462159 0.470985
2391 2 0.512184 0.461596 0.471134
1282 2 0.511785 0.462219 0.464757
1430 2 0.516762 0.463764 0.467606
1429 2 0.517239 0.463303 0.473465
2392 2 0.517969 0.462912 0.480387
1409 2 0.532902 0.478553 0.463142
1416 2 0.526149 0.469629 0.468674
1418 2 0.529282 0.473638 0.46512
1423 2 0.522119 0.466281 0.47101
1424 2 0.521753 0.466834 0.465335
1408 2 0.533213 0.477423 0.469378
1422 2 0.526818 0.469215 0.475446
1272 2 0.521989 0.465495 0.476449
1415 2 0.529845 0.47271 0.471816
2330 2 0.534213 0.47789 0.474817
1407 2 0.531321 0.473322 0.47779
1503 2 0.459931 0.495441 0.471264
1511 2 0.459288 0.495667 0.476931
1502 2 0.460852 0.487256 0.47988
2294 2 0.460703 0.494739 0.465529
2303 2 0.460782 0.48933 0.474718
2302 2 0.461265 0.489525 0.469137
1466 2 0.462541 0.488307 0.463282
1484 2 0.463343 0.484092 0.469559
2301 2 0.464518 0.483526 0.462405
1501 2 0.46299 0.482956 0.475329
1652 2 0.536775 0.481928 0.478254
2327 2 0.537479 0.487184 0.466454
2328 2 0.535818 0.481978 0.467821
2329 2 0.537279 0.484202 0.473126
1638 2 0.538662 0.492623 0.463665
2245 2 0.539286 0.499404 0.462928
1653 2 0.53909 0.490547 0.470201
1659 2 0.539318 0.488512 0.476252
1646 2 0.539858 0.49718 0.46793
1637 2 0.540256 0.494905 0.47372
1942 2 0.541102 0.499104 0.478299
2247 2 0.540736 0.493421 0.480008
2293 2 0.459449 0.500782 0.473893
1765 2 0.460277 0.500874 0.467774
2213 2 0.460921 0.505417 0.464199
2212 2 0.460199 0.50612 0.470863
1766 2 0.4593 0.505446 0.477249
2210 2 0.461017 0.511428 0.473867
1775 2 0.460264 0.510059 0.479905
2211 2 0.461639 0.510739 0.467152
2031 2 0.464044 0.516138 0.463898
1768 2 0.462422 0.516165 0.476202
2028 2 0.463138 0.515685 0.470061
2159 2 0.53573 0.519056 0.473173
1938 2 0.537821 0.51539 0.477358
1947 2 0.536186 0.516481 0.466697
1941 2 0.538044 0.513598 0.4716
2156 2 0.538124 0.510677 0.465763
2246 2 0.540415 0.500711 0.472447
1946 2 0.538687 0.505434 0.461941
1944 2 0.539622 0.503955 0.467649
2157 2 0.539577 0.508208 0.471914
1943 2 0.540638 0.504533 0.477112
1940 2 0.539746 0.510365 0.477658
2003 2 0.473777 0.528973 0.462421
2017 2 0.468991 0.524422 0.464044
2011 2 0.477406 0.532535 0.465209
2012 2 0.476368 0.532603 0.471488
2018 2 0.472231 0.528803 0.467972
2023 2 0.465786 0.520627 0.467803
2024 2 0.468126 0.524973 0.470597
2019 2 0.471449 0.528871 0.473832
2013 2 0.475196 0.532661 0.47739
2208 2 0.467807 0.525349 0.47749
2209 2 0.465144 0.520671 0.47434
1769 2 0.464157 0.520562 0.480409
2006 2 0.470641 0.528865 0.480295
2005 2 0.47991 0.535366 0.474717
2004 2 0.481321 0.535567 0.468857
1995 2 0.482564 0.535167 0.462765
2139 2 0.486767 0.537495 0.466268
1996 2 0.486211 0.538078 0.472591
2138 2 0.484114 0.537872 0.478389
2150 2 0.516595 0.535728 0.463769
2097 2 0.514532 0.537524 0.470304
2111 2 0.511274 0.53792 0.464738
1968 2 0.518367 0.536548 0.474509
1961 2 0.516562 0.537505 0.480384
1949 2 0.531541 0.523037 0.461761
1965 2 0.527249 0.528086 0.462062
1974 2 0.521949 0.532641 0.463151
1934 2 0.534481 0.522525 0.478128
1956 2 0.533724 0.521234 0.467288
2151 2 0.52017 0.534557 0.469163
2158 2 0.529809 0.526482 0.467501
1958 2 0.525484 0.530596 0.466883
1959 2 0.528087 0.52924 0.473055
1966 2 0.523632 0.533088 0.473508
1967 2 0.521958 0.534727 0.479736
1960 2 0.526757 0.531118 0.47849
1950 2 0.531037 0.526905 0.478206
2160 2 0.53267 0.524122 0.472675
2109 2 0.492429 0.538771 0.464563
2108 2 0.491345 0.539267 0.470456
2114 2 0.497635 0.539945 0.468143
2102 2 0.490291 0.539763 0.477246
2106 2 0.496338 0.540455 0.473938
2116 2 0.499171 0.539169 0.46239
2107 2 0.495184 0.540975 0.480737
2100 2 0.500838 0.5412 0.479216
2152 2 0.512509 0.538808 0.476141
2104 2 0.508647 0.539479 0.470764
2105 2 0.502667 0.540445 0.472629
2110 2 0.503963 0.539613 0.466614
2089 2 0.506402 0.540345 0.476506
2375 2 0.486018 0.461089 0.482916
1301 2 0.497238 0.458878 0.480782
1305 2 0.496984 0.458175 0.492414
1309 2 0.492105 0.459076 0.489882
2408 2 0.486457 0.460624 0.488264
2412 2 0.492425 0.45915 0.484224
2404 2 0.498349 0.458231 0.486864
2410 2 0.485847 0.460516 0.494413
1249 2 0.49127 0.459042 0.49612
2406 2 0.496731 0.457941 0.49867
1300 2 0.502899 0.458888 0.483447
1294 2 0.502882 0.458503 0.490527
1288 2 0.508181 0.458907 0.491869
1289 2 0.50829 0.459353 0.485955
1271 2 0.513525 0.460873 0.483749
1287 2 0.513668 0.460467 0.489479
1270 2 0.513584 0.460441 0.49563
2400 2 0.502469 0.458169 0.495884
1261 2 0.508 0.458856 0.498366
1493 2 0.476214 0.465659 0.488714
2298 2 0.475604 0.466373 0.482643
1494 2 0.476475 0.465536 0.494989
1497 2 0.467581 0.473937 0.487893
1506 2 0.468163 0.473076 0.493642
1507 2 0.467682 0.47422 0.481718
2296 2 0.471754 0.468909 0.490931
2297 2 0.471501 0.469869 0.484857
1499 2 0.464638 0.478394 0.484853
1514 2 0.464651 0.477597 0.497545
1508 2 0.464838 0.477446 0.490925
1496 2 0.471917 0.468894 0.497025
1312 2 0.48058 0.463369 0.485244
1505 2 0.467646 0.473294 0.499942
1314 2 0.481063 0.462649 0.491217
1218 2 0.480925 0.462678 0.497316
2394 2 0.51922 0.462753 0.491927
2398 2 0.518486 0.462344 0.498084
1414 2 0.527622 0.469372 0.480855
1664 2 0.534521 0.477308 0.481513
2393 2 0.519342 0.463064 0.486652
2333 2 0.523371 0.465301 0.495142
1406 2 0.522789 0.465499 0.482493
2331 2 0.531488 0.472871 0.484539
1279 2 0.52412 0.466106 0.488875
1405 2 0.527755 0.468657 0.493222
1667 2 0.533981 0.476108 0.487711
1668 2 0.531443 0.472556 0.491323
2332 2 0.528078 0.469189 0.487214
1670 2 0.531701 0.472598 0.497838
1666 2 0.534907 0.477128 0.494382
1671 2 0.526982 0.467883 0.499158
1669 2 0.535178 0.477015 0.499886
2292 2 0.458815 0.499524 0.480771
1518 2 0.459139 0.493039 0.482208
1510 2 0.460359 0.487985 0.485158
1516 2 0.460017 0.487595 0.491301
1517 2 0.458754 0.493351 0.495122
1524 2 0.458218 0.498935 0.498573
2291 2 0.458698 0.492691 0.488919
1522 2 0.459814 0.487585 0.497495
1789 2 0.458224 0.498334 0.49226
1782 2 0.458435 0.498012 0.486288
1515 2 0.462101 0.482359 0.495569
1500 2 0.462228 0.483108 0.48253
1509 2 0.462251 0.482586 0.488955
1663 2 0.537067 0.480805 0.489675
1658 2 0.537282 0.482118 0.48402
1662 2 0.538054 0.482712 0.494577
1645 2 0.539308 0.487599 0.482152
1643 2 0.541445 0.494207 0.491961
1644 2 0.540762 0.491254 0.487158
1651 2 0.53921 0.485926 0.488404
1657 2 0.540429 0.489084 0.49399
1650 2 0.541536 0.493453 0.497994
1939 2 0.541358 0.496707 0.484623
1656 2 0.540218 0.487574 0.499432
1635 2 0.54194 0.498843 0.495739
1774 2 0.458996 0.504438 0.483482
1783 2 0.458221 0.503506 0.488944
1784 2 0.459526 0.509782 0.486276
1790 2 0.459038 0.509324 0.4924
1795 2 0.45832 0.503753 0.495071
1777 2 0.460834 0.514812 0.495175
1791 2 0.459238 0.509539 0.498257
1776 2 0.460884 0.514686 0.4886
1767 2 0.461602 0.515352 0.482678
1933 2 0.538297 0.516743 0.491017
1922 2 0.536643 0.518844 0.481869
1636 2 0.541844 0.500231 0.489992
1929 2 0.538934 0.514534 0.483884
1937 2 0.540687 0.507876 0.483154
2248 2 0.541365 0.505818 0.489015
1927 2 0.540474 0.51127 0.493695
1932 2 0.539892 0.511976 0.488096
1935 2 0.541519 0.505109 0.494616
1936 2 0.541351 0.502288 0.483842
1919 2 0.5392 0.515284 0.498371
1931 2 0.540813 0.50945 0.499117
2137 2 0.478708 0.535338 0.481415
1786 2 0.463041 0.519496 0.498336
1778 2 0.463238 0.519604 0.486507
1779 2 0.462913 0.519543 0.492531
1770 2 0.467006 0.524899 0.484101
1997 2 0.477834 0.5354 0.493463
1771 2 0.465681 0.524307 0.49567
1772 2 0.469349 0.528489 0.493179
1773 2 0.473539 0.532387 0.496562
1998 2 0.47417 0.532486 0.483907
2135 2 0.473371 0.532354 0.490416
2206 2 0.47003 0.528805 0.48729
2207 2 0.465887 0.524141 0.48947
2096 2 0.478087 0.535601 0.487707
1781 2 0.468882 0.528293 0.498899
2136 2 0.481316 0.537766 0.49835
2095 2 0.483086 0.53815 0.491028
2103 2 0.483166 0.537762 0.484745
1953 2 0.517471 0.537843 0.492095
1952 2 0.519046 0.537173 0.485879
1928 2 0.537197 0.519364 0.49548
2128 2 0.5213 0.536143 0.495996
2161 2 0.529062 0.529539 0.483713
1951 2 0.524288 0.533643 0.48456
2154 2 0.526579 0.532171 0.49491
1916 2 0.531077 0.528117 0.493677
1923 2 0.53178 0.526971 0.488481
2162 2 0.533403 0.524527 0.483648
2163 2 0.527366 0.531601 0.488868
2164 2 0.522998 0.534918 0.490442
1915 2 0.536164 0.520652 0.487392
1908 2 0.534852 0.523015 0.492523
1914 2 0.533938 0.524996 0.498826
2174 2 0.529633 0.529614 0.499377
2094 2 0.488836 0.539698 0.482776
2101 2 0.493418 0.541021 0.486099
2092 2 0.487407 0.539779 0.48842
2085 2 0.49097 0.54079 0.492393
2087 2 0.486638 0.53974 0.495902
2084 2 0.495494 0.541716 0.497282
2093 2 0.496447 0.541581 0.491041
2099 2 0.499401 0.541636 0.486385
2153 2 0.513811 0.539269 0.486057
2091 2 0.510091 0.540179 0.481031
2098 2 0.504823 0.541027 0.483284
2080 2 0.512296 0.540024 0.492508
2090 2 0.508922 0.540757 0.48765
2081 2 0.507199 0.541107 0.494857
2082 2 0.501136 0.54189 0.496176
2083 2 0.503728 0.541698 0.490308
2126 2 0.515143 0.539078 0.498097
2127 2 0.509546 0.540876 0.499632
1255 2 0.486196 0.460439 0.500403
1234 2 0.490428 0.459465 0.50816
1260 2 0.491703 0.458896 0.502197
1243 2 0.490532 0.459574 0.514294
1257 2 0.495789 0.458565 0.510919
1244 2 0.495856 0.458953 0.517021
1250 2 0.496632 0.45823 0.505028
2414 2 0.485052 0.460802 0.506294
1235 2 0.48503 0.461179 0.511479
2422 2 0.48573 0.461229 0.517611
1265 2 0.501304 0.458318 0.512568
1258 2 0.501691 0.458725 0.518173
1264 2 0.508546 0.458834 0.505695
1267 2 0.510831 0.45989 0.514398
2402 2 0.503161 0.458153 0.501512
1269 2 0.51294 0.460048 0.50149
1256 2 0.501931 0.458285 0.506753
1266 2 0.506744 0.458821 0.511025
2395 2 0.513281 0.460242 0.508498
1252 2 0.507522 0.459418 0.518965
2295 2 0.475962 0.465535 0.500881
1495 2 0.47519 0.466284 0.507027
1504 2 0.471591 0.469001 0.502428
1512 2 0.467886 0.473191 0.506489
1513 2 0.464613 0.477588 0.503629
1519 2 0.465355 0.476471 0.509582
2372 2 0.468518 0.47274 0.513388
2373 2 0.471197 0.469648 0.509542
2424 2 0.474935 0.46667 0.51383
1225 2 0.479392 0.463661 0.509529
1316 2 0.471981 0.469596 0.517698
1525 2 0.465295 0.477129 0.51638
2374 2 0.480537 0.462942 0.50357
1242 2 0.480552 0.463254 0.515329
1217 2 0.515804 0.461669 0.514342
2396 2 0.517922 0.462118 0.504246
1404 2 0.518913 0.462624 0.510348
1672 2 0.531335 0.472339 0.503844
1673 2 0.527429 0.468287 0.504885
2334 2 0.522608 0.464708 0.501533
1674 2 0.523077 0.465182 0.507181
2335 2 0.533406 0.475111 0.511727
2336 2 0.534557 0.476611 0.505384
2338 2 0.53024 0.471065 0.509858
1655 2 0.536563 0.479793 0.510517
1403 2 0.526216 0.46768 0.51091
2397 2 0.521965 0.464762 0.514763
2337 2 0.52694 0.46827 0.516324
1660 2 0.534976 0.477715 0.517038
2339 2 0.531315 0.472642 0.516657
1523 2 0.458818 0.492861 0.500846
1529 2 0.458192 0.498149 0.504143
1527 2 0.460474 0.486767 0.510367
1528 2 0.459848 0.487866 0.503947
1532 2 0.458809 0.49256 0.507344
1531 2 0.459189 0.492145 0.513126
1535 2 0.460974 0.486262 0.516385
1800 2 0.458669 0.498118 0.516841
2288 2 0.458315 0.497732 0.510496
1536 2 0.459522 0.491308 0.519151
1521 2 0.461859 0.482491 0.501699
1520 2 0.462318 0.481784 0.507707
1526 2 0.462908 0.481358 0.513257
1665 2 0.537974 0.48207 0.505449
1661 2 0.537927 0.482292 0.500033
1654 2 0.537948 0.483375 0.516349
1641 2 0.539106 0.485319 0.510446
1649 2 0.540158 0.488123 0.505349
1634 2 0.541849 0.498836 0.502076
1930 2 0.541763 0.497513 0.508683
1633 2 0.54078 0.49089 0.510555
1642 2 0.541296 0.493259 0.504004
2250 2 0.541255 0.495097 0.514965
1632 2 0.540047 0.489179 0.516571
1917 2 0.54124 0.499989 0.51905
2290 2 0.458361 0.504561 0.501022
1785 2 0.460654 0.514788 0.500982
1533 2 0.458254 0.503223 0.507044
1792 2 0.45919 0.50881 0.50992
1796 2 0.459176 0.509357 0.504236
1797 2 0.460941 0.514295 0.513856
1801 2 0.45941 0.509046 0.516183
2289 2 0.458551 0.503582 0.512696
1798 2 0.460608 0.514497 0.50737
1807 2 0.458868 0.503553 0.518595
1802 2 0.463409 0.519018 0.51792
1 1 0.5 0.5 0.5
2 1 0.5 0.5 0.5
3 1 0.5 0.5 0.5
4 1 0.5 0.5 0.5
5 1 0.5 0.5 0.5
6 1 0.5 0.5 0.5
7 1 0.5 0.5 0.5
8 1 0.5 0.5 0.5
9 1 0.5 0.5 0.5
10 1 0.5 0.5 0.5
11 1 0.5 0.5 0.5
12 1 0.5 0.5 0.5
13 1 0.5 0.5 0.5
14 1 0.5 0.5 0.5
15 1 0.5 0.5 0.5
16 1 0.5 0.5 0.5
17 1 0.5 0.5 0.5
18 1 0.5 0.5 0.5
19 1 0.5 0.5 0.5
20 1 0.5 0.5 0.5
21 1 0.5 0.5 0.5
22 1 0.5 0.5 0.5
23 1 0.5 0.5 0.5
24 1 0.5 0.5 0.5
25 1 0.5 0.5 0.5
26 1 0.5 0.5 0.5
27 1 0.5 0.5 0.5
28 1 0.5 0.5 0.5
29 1 0.5 0.5 0.5
30 1 0.5 0.5 0.5
31 1 0.5 0.5 0.5
32 1 0.5 0.5 0.5
33 1 0.5 0.5 0.5
34 1 0.5 0.5 0.5
35 1 0.5 0.5 0.5
36 1 0.5 0.5 0.5
37 1 0.5 0.5 0.5
38 1 0.5 0.5 0.5
39 1 0.5 0.5 0.5
40 1 0.5 0.5 0.5
41 1 0.5 0.5 0.5
42 1 0.5 0.5 0.5
43 1 0.5 0.5 0.5
44 1 0.5 0.5 0.5
45 1 0.5 0.5 0.5
46 1 0.5 0.5 0.5
47 1 0.5 0.5 0.5
48 1 0.5 0.5 0.5
49 1 0.5 0.5 0.5
50 1 0.5 0.5 0.5
51 1 0.5 0.5 0.5
52 1 0.5 0.5 0.5
53 1 0.5 0.5 0.5
54 1 0.5 0.5 0.5
55 1 0.5 0.5 0.5
56 1 0.5 0.5 0.5
57 1 0.5 0.5 0.5
58 1 0.5 0.5 0.5
59 1 0.5 0.5 0.5
60 1 0.5 0.5 0.5
61 1 0.5 0.5 0.5
62 1 0.5 0.5 0.5
63 1 0.5 0.5 0.5
64 1 0.5 0.5 0.5
65 1 0.5 0.5 0.5
66 1 0.5 0.5 0.5
67 1 0.5 0.5 0.5
68 1 0.5 0.5 0.5
69 1 0.5 0.5 0.5
70 1 0.5 0.5 0.5
71 1 0.5 0.5 0.5
72 1 0.5 0.5 0.5
73 1 0.5 0.5 0.5
74 1 0.5 0.5 0.5
75 1 0.5 0.5 0.5
76 1 0.5 0.5 0.5
77 1 0.5 0.5 0.5
78 1 0.5 0.5 0.5
79 1 0.5 0.5 0.5
80 1 0.5 0.5 0.5
81 1 0.5 0.5 0.5
82 1 0.5 0.5 0.5
83 1 0.5 0.5 0.5
84 1 0.5 0.5 0.5
85 1 0.5 0.5 0.5
86 1 0.5 0.5 0.5
87 1 0.5 0.5 0.5
88 1 0.5 0.5 0.5
89 1 0.5 0.5 0.5
90 1 0.5 0.5 0.5
91 1 0.5 0.5 0.5
92 1 0.5 0.5 0.5
93 1 0.5 0.5 0.5
94 1 0.5 0.5 0.5
95 1 0.5 0.5 0.5
96 1 0.5 0.5 0.5
97 1 0.5 0.5 0.5
98 1 0.5 0.5 0.5
99 1 0.5 0.5 0.5
100 1 0.5 0.5 0.5
101 1 0.5 0.5 0.5
102 1 0.5 0.5 0.5
103 1 0.5 0.5 0.5
104 1 0.5 0.5 0.5
105 1 0.5 0.5 0.5
106 1 0.5 0.5 0.5
107 1 0.5 0.5 0.5
108 1 0.5 0.5 0.5
109 1 0.5 0.5 0.5
110 1 0.5 0.5 0.5
111 1 0.5 0.5 0.5
112 1 0.5 0.5 0.5
113 1 0.5 0.5 0.5
114 1 0.5 0.5 0.5
115 1 0.5 0.5 0.5
116 1 0.5 0.5 0.5
117 1 0.5 0.5 0.5
118 1 0.5 0.5 0.5
119 1 0.5 0.5 0.5
120 1 0.5 0.5 0.5
121 1 0.5 0.5 0.5
122 1 0.5 0.5 0.5
123 1 0.5 0.5 0.5
124 1 0.5 0.5 0.5
125 1 0.5 0.5 0.5
126 1 0.5 0.5 0.5
127 1 0.5 0.5 0.5
128 1 0.5 0.5 0.5
129 1 0.5 0.5 0.5
130 1 0.5 0.5 0.5
131 1 0.5 0.5 0.5
132 1 0.5 0.5 0.5
133 1 0.5 0.5 0.5
134 1 0.5 0.5 0.5
135 1 0.5 0.5 0.5
136 1 0.5 0.5 0.5
137 1 0.5 0.5 0.5
138 1 0.5 0.5 0.5
139 1 0.5 0.5 0.5
140 1 0.5 0.5 0.5
141 1 0.5 0.5 0.5
142 1 0.5 0.5 0.5
143 1 0.5 0.5 0.5
144 1 0.5 0.5 0.5
145 1 0.5 0.5 0.5
146 1 0.5 0.5 0.5
147 1 0.5 0.5 0.5
148 1 0.5 0.5 0.5
149 1 0.5 0.5 0.5
150 1 0.5 0.5 0.5
151 1 0.5 0.5 0.5
152 1 0.5 0.5 0.5
153 1 0.5 0.5 0.5
154 1 0.5 0.5 0.5
155 1 0.5 0.5 0.5
156 1 0.5 0.5 0.5
157 1 0.5 0.5 0.5
158 1 0.5 0.5 0.5
159 1 0.5 0.5 0.5
160 1 0.5 0.5 0.5
161 1 0.5 0.5 0.5
162 1 0.5 0.5 0.5
163 1 0.5 0.5 0.5
164 1 0.5 0.5 0.5
165 1 0.5 0.5 0.5
166 1 0.5 0.5 0.5
167 1 0.5 0.5 0.5
168 1 0.5 0.5 0.5
169 1 0.5 0.5 0.5
170 1 0.5 0.5 0.5
171 1 0.5 0.5 0.5
172 1 0.5 0.5 0.5
173 1 0.5 0.5 0.5
174 1 0.5 0.5 0.5
175 1 0.5 0.5 0.5
176 1 0.5 0.5 0.5
177 1 0.5 0.5 0.5
178 1 0.5 0.5 0.5
179 1 0.5 0.5 0.5
180 1 0.5 0.5 0.5
181 1 0.5 0.5 0.5
182 1 0.5 0.5 0.5
183 1 0.5 0.5 0.5
184 1 0.5 0.5 0.5
185 1 0.5 0.5 0.5
186 1 0.5 0.5 0.5
187 1 0.5 0.5 0.5
188 1 0.5 0.5 0.5
189 1 0.5 0.5 0.5
190 1 0.5 0.5 0.5
191 1 0.5 0.5 0.5
192 1 0.5 0.5 0.5
193 1 0.5 0.5 0.5
194 1 0.5 0.5 0.5
195 1 0.5 0.5 0.5
196 1 0.5 0.5 0.5
197 1 0.5 0.5 0.5
198 1 0.5 0.5 0.5
199 1 0.5 0.5 0.5
200 1 0.5 0.5 0.5
201 1 0.5 0.5 0.5
202 1 0.5 0.5 0.5
203 1 0.5 0.5 0.5
204 1 0.5 0.5 0.5
205 1 0.5 0.5 0.5
206 1 0.5 0.5 0.5
207 1 0.5 0.5 0.5
208 1 0.5 0.5 0.5
209 1 0.5 0.5 0.5
210 1 0.5 0.5 0.5
211 1 0.5 0.5 0.5
212 1 0.5 0.5 0.5
213 1 0.5 0.5 0.5
214 1 0.5 0.5 0.5
215 1 0.5 0.5 0.5
216 1 0.5 0.5 0.5
217 1 0.5 0.5 0.5
218 1 0.5 0.5 0.5
219 1 0.5 0.5 0.5
220 1 0.5 0.5 0.5
221 1 0.5 0.5 0.5
222 1 0.5 0.5 0.5
223 1 0.5 0.5 0.5
224 1 0.5 0.5 0.5
225 1 0.5 0.5 0.5
226 1 0.5 0.5 0.5
227 1 0.5 0.5 0.5
228 1 0.5 0.5 0.5
229 1 0.5 0.5 0.5
230 1 0.5 0.5 0.5
231 1 0.5 0.5 0.5
232 1 0.5 0.5 0.5
233 1 0.5 0.5 0.5
234 1 0.5 0.5 0.5
235 1 0.5 0.5 0.5
236 1 0.5 0.5 0.5
237 1 0.5 0.5 0.5
238 1 0.5 0.5 0.5
239 1 0.5 0.5 0.5
240 1 0.5 0.5 0.5
241 1 0.5 0.5 0.5
242 1 0.5 0.5 0.5
243 1 0.5 0.5 0.5
244 1 0.5 0.5 0.5
245 1 0.5 0.5 0.5
246 1 0.5 0.5 0.5
247 1 0.5 0.5 0.5
248 1 0.5 0.5 0.5
249 1 0.5 0.5 0.5
250 1 0.5 0.5 0.5
251 1 0.5 0.5 0.5
252 1 0.5 0.5 0.5
253 1 0.5 0.5 0.5
254 1 0.5 0.5 0.5
255 1 0.5 0.5 0.5
256 1 0.5 0.5 0.5
257 1 0.5 0.5 0.5
258 1 0.5 0.5 0.5
259 1 0.5 0.5 0.5
260 1 0.5 0.5 0.5
261 1 0.5 0.5 0.5
262 1 0.5 0.5 0.5
263 1 0.5 0.5 0.5
264 1 0.5 0.5 0.5
265 1 0.5 0.5 0.5
266 1 0.5 0.5 0.5
267 1 0.5 0.5 0.5
268 1 0.5 0.5 0.5
269 1 0.5 0.5 0.5
270 1 0.5 0.5 0.5
271 1 0.5 0.5 0.5
272 1 0.5 0.5 0.5
273 1 0.5 0.5 0.5
274 1 0.5 0.5 0.5
275 1 0.5 0.5 0.5
276 1 0.5 0.5 0.5
277 1 0.5 0.5 0.5
278 1 0.5 0.5 0.5
279 1 0.5 0.5 0.5
280 1 0.5 0.5 0.5
281 1 0.5 0.5 0.5
282 1 0.5 0.5 0.5
283 1 0.5 0.5 0.5
284 1 0.5 0.5 0.5
285 1 0.5 0.5 0.5
286 1 0.5 0.5 0.5
287 1 0.5 0.5 0.5
288 1 0.5 0.5 0.5
289 1 0.5 0.5 0.5
290 1 0.5 0.5 0.5
291 1 0.5 0.5 0.5
292 1 0.5 0.5 0.5
293 1 0.5 0.5 0.5
294 1 0.5 0.5 0.5
295 1 0.5 0.5 0.5
296 1 0.5 0.5 0.5
297 1 0.5 0.5 0.5
298 1 0.5 0.5 0.5
299 1 0.5 0.5 0.5
300 1 0.5 0.5 0.5
301 1 0.5 0.5 0.5
302 1 0.5 0.5 0.5
303 1 0.5 0.5 0.5
304 1 0.5 0.5 0.5
305 1 0.5 0.5 0.5
306 1 0.5 0.5 0.5
307 1 0.5 0.5 0.5
308 1 0.5 0.5 0.5
309 1 0.5 0.5 0.5
310 1 0.5 0.5 0.5
311 1 0.5 0.5 0.5
312 1 0.5 0.5 0.5
313 1 0.5 0.5 0.5
314 1 0.5 0.5 0.5
315 1 0.5 0.5 0.5
316 1 0.5 0.5 0.5
317 1 0.5 0.5 0.5
318 1 0.5 0.5 0.5
319 1 0.5 0.5 0.5
320 1 0.5 0.5 0.5
321 1 0.5 0.5 0.5
322 1 0.5 0.5 0.5
323 1 0.5 0.5 0.5
324 1 0.5 0.5 0.5
325 1 0.5 0.5 0.5
326 1 0.5 0.5 0.5
327 1 0.5 0.5 0.5
328 1 0.5 0.5 0.5
329 1 0.5 0.5 0.5
330 1 0.5 0.5 0.5
331 1 0.5 0.5 0.5
332 1 0.5 0.5 0.5
333 1 0.5 0.5 0.5
334 1 0.5 0.5 0.5
335 1 0.5 0.5 0.5
336 1 0.5 0.5 0.5
337 1 0.5 0.5 0.5
338 1 0.5 0.5 0.5
339 1 0.5 0.5 0.5
340 1 0.5 0.5 0.5
341 1 0.5 0.5 0.5
342 1 0.5 0.5 0.5
343 1 0.5 0.5 0.5
344 1 0.5 0.5 0.5
345 1 0.5 0.5 0.5
346 1 0.5 0.5 0.5
347 1 0.5 0.5 0.5
348 1 0.5 0.5 0.5
349 1 0.5 0.5 0.5
350 1 0.5 0.5 0.5
351 1 0.5 0.5 0.5
352 1 0.5 0.5 0.5
353 1 0.5 0.5 0.5
354 1 0.5 0.5 0.5
355 1 0.5 0.5 0.5
356 1 0.5 0.5 0.5
357 1 0.5 0.5 0.5
358 1 0.5 0.5 0.5
359 1 0.5 0.5 0.5
360 1 0.5 0.5 0.5
361 1 0.5 0.5 0.5
362 1 0.5 0.5 0.5
363 1 0.5 0.5 0.5
364 1 0.5 0.5 0.5
365 1 0.5 0.5 0.5
366 1 0.5 0.5 0.5
367 1 0.5 0.5 0.5
368 1 0.5 0.5 0.5
369 1 0.5 0.5 0.5
370 1 0.5 0.5 0.5
371 1 0.5 0.5 0.5