ITEM: TIMESTEP
10000
ITEM: NUMBER OF ATOMS
1212
ITEM: BOX BOUNDS pp pp pp
-50 50
-50 50
-50 50
ITEM: ATOMS id type xs ys zs
509 1 0.493865 0.481689 0.442739
506 1 0.506135 0.481689 0.442739
1015 1 0.5 0.485066 0.441444
519 1 0.48785 0.490509 0.44157
510 1 0.493835 0.487721 0.441153
504 1 0.506165 0.487721 0.441153
1016 1 0.5 0.490945 0.440252
500 1 0.51215 0.490509 0.44157
527 1 0.482118 0.493486 0.442645
520 1 0.487808 0.496817 0.440898
511 1 0.493797 0.493835 0.440206
512 1 0.493801 0.5 0.439889
497 1 0.506199 0.5 0.439889
501 1 0.506203 0.493835 0.440206
1017 1 0.5 0.497011 0.439644
496 1 0.512192 0.496817 0.440898
490 1 0.517923 0.5 0.442289
495 1 0.517882 0.493486 0.442645
528 1 0.482077 0.5 0.442289
529 1 0.482118 0.506514 0.442645
521 1 0.487808 0.503183 0.440898
513 1 0.493797 0.506165 0.440206
492 1 0.506203 0.506165 0.440206
1018 1 0.5 0.502989 0.439644
491 1 0.512192 0.503183 0.440898
484 1 0.517882 0.506514 0.442645
522 1 0.48785 0.509491 0.44157
514 1 0.493835 0.512279 0.441153
1019 1 0.5 0.509055 0.440252
486 1 0.506165 0.512279 0.441153
485 1 0.51215 0.509491 0.44157
515 1 0.493865 0.518311 0.442739
1020 1 0.5 0.514934 0.441444
479 1 0.506135 0.518311 0.442739
1102 1 0.494126 0.47002 0.447861
1 1 0.5 0.46823 0.448595
1103 1 0.505874 0.47002 0.447861
1099 1 0.477452 0.47701 0.448865
1100 1 0.482804 0.474438 0.448013
517 1 0.488079 0.478113 0.444949
1101 1 0.488431 0.472078 0.447671
508 1 0.49394 0.475791 0.444964
507 1 0.50606 0.475791 0.444964
1013 1 0.5 0.473651 0.445617
505 1 0.511921 0.478113 0.444949
1104 1 0.511569 0.472078 0.447671
1105 1 0.517196 0.474438 0.448013
1106 1 0.522548 0.47701 0.448865
532 1 0.477007 0.483459 0.446619
525 1 0.482416 0.480663 0.445514
518 1 0.487939 0.484239 0.442922
1014 1 0.5 0.479228 0.443252
503 1 0.512061 0.484239 0.442922
502 1 0.517584 0.480663 0.445514
498 1 0.522993 0.483459 0.446619
533 1 0.476792 0.490009 0.445106
538 1 0.47186 0.486439 0.44827
526 1 0.482218 0.487028 0.443721
499 1 0.517782 0.487028 0.443721
493 1 0.52814 0.486439 0.44827
494 1 0.523208 0.490009 0.445106
544 1 0.466861 0.496519 0.449587
534 1 0.476683 0.496667 0.444349
539 1 0.471642 0.493192 0.447073
540 1 0.471579 0.5 0.446671
488 1 0.528358 0.493192 0.447073
489 1 0.523317 0.496667 0.444349
481 1 0.533139 0.496519 0.449587
545 1 0.466861 0.503481 0.449587
535 1 0.476683 0.503333 0.444349
541 1 0.471642 0.506808 0.447073
475 1 0.528358 0.506808 0.447073
482 1 0.528421 0.5 0.446671
483 1 0.523317 0.503333 0.444349
474 1 0.533139 0.503481 0.449587
536 1 0.476792 0.509991 0.445106
542 1 0.47186 0.513561 0.44827
530 1 0.482218 0.512972 0.443721
477 1 0.517782 0.512972 0.443721
467 1 0.52814 0.513561 0.44827
476 1 0.523208 0.509991 0.445106
537 1 0.477007 0.516541 0.446619
531 1 0.482416 0.519337 0.445514
523 1 0.487939 0.515761 0.442922
1021 1 0.5 0.520772 0.443252
478 1 0.512061 0.515761 0.442922
469 1 0.517584 0.519337 0.445514
468 1 0.522993 0.516541 0.446619
1009 1 0.477452 0.52299 0.448865
1010 1 0.482804 0.525562 0.448013
524 1 0.488079 0.521887 0.444949
1011 1 0.488431 0.527922 0.447671
516 1 0.49394 0.524209 0.444964
1022 1 0.5 0.526349 0.445617
471 1 0.50606 0.524209 0.444964
470 1 0.511921 0.521887 0.444949
1024 1 0.511569 0.527922 0.447671
1025 1 0.517196 0.525562 0.448013
1026 1 0.522548 0.52299 0.448865
8 1 0.5 0.53177 0.448595
1012 1 0.494126 0.52998 0.447861
1023 1 0.505874 0.52998 0.447861
247 1 0.486498 0.462401 0.454659
1171 1 0.49285 0.460509 0.454821
66 1 0.5 0.459926 0.454769
1172 1 0.496369 0.464146 0.451492
1173 1 0.503631 0.464146 0.451492
235 1 0.513502 0.462401 0.454659
1174 1 0.50715 0.460509 0.454821
249 1 0.474709 0.467369 0.455871
239 1 0.484288 0.468186 0.451084
240 1 0.478605 0.470688 0.45168
248 1 0.480484 0.464724 0.454983
238 1 0.490195 0.465986 0.451024
237 1 0.509805 0.465986 0.451024
233 1 0.519516 0.464724 0.454983
234 1 0.521395 0.470688 0.45168
236 1 0.515712 0.468186 0.451084
230 1 0.525291 0.467369 0.455871
242 1 0.468029 0.47641 0.454468
241 1 0.473174 0.473422 0.452822
231 1 0.526826 0.473422 0.452822
227 1 0.531971 0.47641 0.454468
243 1 0.463199 0.479587 0.456632
1097 1 0.467404 0.482843 0.452094
1098 1 0.47224 0.479855 0.450247
1107 1 0.52776 0.479855 0.450247
1108 1 0.532596 0.482843 0.452094
222 1 0.536801 0.479587 0.456632
1096 1 0.462801 0.486064 0.454461
543 1 0.467033 0.489623 0.450429
487 1 0.532967 0.489623 0.450429
1109 1 0.537199 0.486064 0.454461
547 1 0.462547 0.492943 0.453104
550 1 0.458451 0.496424 0.456266
472 1 0.541549 0.496424 0.456266
473 1 0.537562 0.5 0.452662
480 1 0.537453 0.492943 0.453104
548 1 0.462438 0.5 0.452662
549 1 0.462547 0.507057 0.453104
551 1 0.458451 0.503576 0.456266
464 1 0.541549 0.503576 0.456266
465 1 0.537453 0.507057 0.453104
1006 1 0.462801 0.513936 0.454461
546 1 0.467033 0.510377 0.450429
466 1 0.532967 0.510377 0.450429
1029 1 0.537199 0.513936 0.454461
813 1 0.463199 0.520413 0.456632
1007 1 0.467404 0.517157 0.452094
1008 1 0.47224 0.520145 0.450247
1027 1 0.52776 0.520145 0.450247
1028 1 0.532596 0.517157 0.452094
757 1 0.536801 0.520413 0.456632
808 1 0.468029 0.52359 0.454468
802 1 0.473174 0.526578 0.452822
768 1 0.526826 0.526578 0.452822
763 1 0.531971 0.52359 0.454468
796 1 0.474709 0.532631 0.455871
787 1 0.484288 0.531814 0.451084
788 1 0.480484 0.535276 0.454983
795 1 0.478605 0.529312 0.45168
778 1 0.490195 0.534014 0.451024
777 1 0.509805 0.534014 0.451024
772 1 0.521395 0.529312 0.45168
773 1 0.519516 0.535276 0.454983
775 1 0.515712 0.531814 0.451084
769 1 0.525291 0.532631 0.455871
779 1 0.486498 0.537599 0.454659
931 1 0.49285 0.539491 0.454821
932 1 0.496369 0.535854 0.451492
912 1 0.5 0.540074 0.454769
933 1 0.503631 0.535854 0.451492
776 1 0.513502 0.537599 0.454659
934 1 0.50715 0.539491 0.454821
262 1 0.479587 0.456632 0.463199
1169 1 0.486064 0.454461 0.462801
74 1 0.496424 0.456266 0.458451
81 1 0.492943 0.453104 0.462547
64 1 0.507057 0.453104 0.462547
65 1 0.503576 0.456266 0.458451
73 1 0.5 0.452662 0.462438
1176 1 0.513936 0.454461 0.462801
228 1 0.520413 0.456632 0.463199
256 1 0.47686 0.461737 0.459352
263 1 0.473464 0.459266 0.464107
255 1 0.482967 0.459269 0.458737
1170 1 0.489372 0.457242 0.458641
1175 1 0.510628 0.457242 0.458641
232 1 0.517033 0.459269 0.458737
224 1 0.526536 0.459266 0.464107
229 1 0.52314 0.461737 0.459352
250 1 0.469257 0.470281 0.457298
257 1 0.471066 0.464553 0.460527
258 1 0.465606 0.467666 0.462273
220 1 0.534394 0.467666 0.462273
225 1 0.528934 0.464553 0.460527
226 1 0.530743 0.470281 0.457298
251 1 0.464107 0.473464 0.459266
252 1 0.459352 0.47686 0.461737
215 1 0.540648 0.47686 0.461737
221 1 0.535893 0.473464 0.459266
244 1 0.458737 0.482967 0.459269
216 1 0.541263 0.482967 0.459269
245 1 0.454659 0.486498 0.462401
1094 1 0.454821 0.49285 0.460509
1095 1 0.458641 0.489372 0.457242
1110 1 0.541359 0.489372 0.457242
209 1 0.545341 0.486498 0.462401
1111 1 0.545179 0.49285 0.460509
552 1 0.454769 0.5 0.459926
1093 1 0.451492 0.496369 0.464146
1112 1 0.548508 0.496369 0.464146
1003 1 0.451492 0.503631 0.464146
463 1 0.545231 0.5 0.459926
1032 1 0.548508 0.503631 0.464146
820 1 0.454659 0.513502 0.462401
1004 1 0.454821 0.50715 0.460509
1005 1 0.458641 0.510628 0.457242
1030 1 0.541359 0.510628 0.457242
742 1 0.545341 0.513502 0.462401
1031 1 0.545179 0.50715 0.460509
817 1 0.458737 0.517033 0.459269
750 1 0.541263 0.517033 0.459269
809 1 0.464107 0.526536 0.459266
814 1 0.459352 0.52314 0.461737
751 1 0.540648 0.52314 0.461737
758 1 0.535893 0.526536 0.459266
797 1 0.471066 0.535447 0.460527
803 1 0.469257 0.529719 0.457298
804 1 0.465606 0.532334 0.462273
759 1 0.534394 0.532334 0.462273
764 1 0.530743 0.529719 0.457298
765 1 0.528934 0.535447 0.460527
789 1 0.47686 0.538263 0.459352
790 1 0.473464 0.540734 0.464107
780 1 0.482967 0.540731 0.458737
930 1 0.489372 0.542758 0.458641
935 1 0.510628 0.542758 0.458641
774 1 0.517033 0.540731 0.458737
766 1 0.526536 0.540734 0.464107
770 1 0.52314 0.538263 0.459352
781 1 0.479587 0.543368 0.463199
929 1 0.486064 0.545539 0.462801
908 1 0.5 0.547338 0.462438
909 1 0.492943 0.546896 0.462547
911 1 0.496424 0.543734 0.458451
907 1 0.507057 0.546896 0.462547
910 1 0.503576 0.543734 0.458451
936 1 0.513936 0.545539 0.462801
771 1 0.520413 0.543368 0.463199
80 1 0.496519 0.449587 0.466861
72 1 0.503481 0.449587 0.466861
268 1 0.47641 0.454468 0.468029
1168 1 0.482843 0.452094 0.467404
87 1 0.489623 0.450429 0.467033
63 1 0.510377 0.450429 0.467033
1177 1 0.517157 0.452094 0.467404
223 1 0.52359 0.454468 0.468029
264 1 0.467666 0.462273 0.465606
269 1 0.470281 0.457298 0.469257
270 1 0.464553 0.460527 0.471066
212 1 0.535447 0.460527 0.471066
218 1 0.529719 0.457298 0.469257
219 1 0.532334 0.462273 0.465606
259 1 0.460527 0.471066 0.464553
265 1 0.462273 0.465606 0.467666
266 1 0.457298 0.469257 0.470281
206 1 0.542702 0.469257 0.470281
213 1 0.537727 0.465606 0.467666
214 1 0.539473 0.471066 0.464553
260 1 0.455871 0.474709 0.467369
207 1 0.544129 0.474709 0.467369
253 1 0.454983 0.480484 0.464724
254 1 0.451084 0.484288 0.468186
261 1 0.45168 0.478605 0.470688
199 1 0.54832 0.478605 0.470688
200 1 0.548916 0.484288 0.468186
208 1 0.545017 0.480484 0.464724
246 1 0.451024 0.490195 0.465986
201 1 0.548976 0.490195 0.465986
1092 1 0.447861 0.494126 0.47002
11 1 0.551405 0.5 0.46823
1113 1 0.552139 0.494126 0.47002
12 1 0.448595 0.5 0.46823
1002 1 0.447861 0.505874 0.47002
943 1 0.552139 0.505874 0.47002
822 1 0.451024 0.509805 0.465986
733 1 0.548976 0.509805 0.465986
818 1 0.454983 0.519516 0.464724
819 1 0.45168 0.521395 0.470688
821 1 0.451084 0.515712 0.468186
734 1 0.548916 0.515712 0.468186
735 1 0.54832 0.521395 0.470688
743 1 0.545017 0.519516 0.464724
815 1 0.455871 0.525291 0.467369
744 1 0.544129 0.525291 0.467369
805 1 0.462273 0.534394 0.467666
810 1 0.460527 0.528934 0.464553
811 1 0.457298 0.530743 0.470281
745 1 0.542702 0.530743 0.470281
752 1 0.539473 0.528934 0.464553
753 1 0.537727 0.534394 0.467666
791 1 0.470281 0.542702 0.469257
798 1 0.467666 0.537727 0.465606
799 1 0.464553 0.539473 0.471066
754 1 0.535447 0.539473 0.471066
760 1 0.532334 0.537727 0.465606
761 1 0.529719 0.542702 0.469257
782 1 0.47641 0.545532 0.468029
928 1 0.482843 0.547906 0.467404
906 1 0.489623 0.549571 0.467033
903 1 0.510377 0.549571 0.467033
937 1 0.517157 0.547906 0.467404
767 1 0.52359 0.545532 0.468029
905 1 0.496519 0.550413 0.466861
904 1 0.503481 0.550413 0.466861
1166 1 0.47701 0.448865 0.477452
96 1 0.483459 0.446619 0.477007
91 1 0.490009 0.445106 0.476792
92 1 0.486439 0.44827 0.47186
79 1 0.5 0.446671 0.471579
85 1 0.496667 0.444349 0.476683
86 1 0.493192 0.447073 0.471642
71 1 0.506808 0.447073 0.471642
78 1 0.503333 0.444349 0.476683
62 1 0.513561 0.44827 0.47186
70 1 0.509991 0.445106 0.476792
61 1 0.516541 0.446619 0.477007
1179 1 0.52299 0.448865 0.477452
274 1 0.467369 0.455871 0.474709
273 1 0.473422 0.452822 0.473174
1167 1 0.479855 0.450247 0.47224
1178 1 0.520145 0.450247 0.47224
217 1 0.526578 0.452822 0.473174
211 1 0.532631 0.455871 0.474709
271 1 0.459266 0.464107 0.473464
275 1 0.461737 0.459352 0.47686
204 1 0.538263 0.459352 0.47686
205 1 0.540734 0.464107 0.473464
272 1 0.454468 0.468029 0.47641
197 1 0.545532 0.468029 0.47641
1089 1 0.448865 0.477452 0.47701
267 1 0.452822 0.473174 0.473422
198 1 0.547178 0.473174 0.473422
1116 1 0.551135 0.477452 0.47701
1090 1 0.448013 0.482804 0.474438
1115 1 0.551987 0.482804 0.474438
290 1 0.444949 0.488079 0.478113
1091 1 0.447671 0.488431 0.472078
434 1 0.555051 0.488079 0.478113
1114 1 0.552329 0.488431 0.472078
291 1 0.444964 0.49394 0.475791
426 1 0.555036 0.49394 0.475791
1033 1 0.554383 0.5 0.473651
553 1 0.444964 0.50606 0.475791
1082 1 0.445617 0.5 0.473651
732 1 0.555036 0.50606 0.475791
554 1 0.444949 0.511921 0.478113
1001 1 0.447671 0.511569 0.472078
731 1 0.555051 0.511921 0.478113
944 1 0.552329 0.511569 0.472078
1000 1 0.448013 0.517196 0.474438
945 1 0.551987 0.517196 0.474438
999 1 0.448865 0.522548 0.47701
816 1 0.452822 0.526826 0.473422
736 1 0.547178 0.526826 0.473422
946 1 0.551135 0.522548 0.47701
812 1 0.454468 0.531971 0.47641
737 1 0.545532 0.531971 0.47641
800 1 0.461737 0.540648 0.47686
806 1 0.459266 0.535893 0.473464
746 1 0.540734 0.535893 0.473464
747 1 0.538263 0.540648 0.47686
792 1 0.467369 0.544129 0.474709
783 1 0.473422 0.547178 0.473174
927 1 0.479855 0.549753 0.47224
938 1 0.520145 0.549753 0.47224
762 1 0.526578 0.547178 0.473174
755 1 0.532631 0.544129 0.474709
926 1 0.47701 0.551135 0.477452
897 1 0.483459 0.553381 0.477007
896 1 0.490009 0.554894 0.476792
902 1 0.486439 0.55173 0.47186
895 1 0.496667 0.555651 0.476683
901 1 0.493192 0.552927 0.471642
894 1 0.503333 0.555651 0.476683
899 1 0.506808 0.552927 0.471642
900 1 0.5 0.553329 0.471579
893 1 0.509991 0.554894 0.476792
898 1 0.513561 0.55173 0.47186
892 1 0.516541 0.553381 0.477007
939 1 0.52299 0.551135 0.477452
90 1 0.493486 0.442645 0.482118
77 1 0.506514 0.442645 0.482118
84 1 0.5 0.442289 0.482077
1165 1 0.474438 0.448013 0.482804
99 1 0.480663 0.445514 0.482416
95 1 0.487028 0.443721 0.482218
69 1 0.512972 0.443721 0.482218
60 1 0.519337 0.445514 0.482416
1180 1 0.525562 0.448013 0.482804
277 1 0.470688 0.45168 0.478605
278 1 0.464724 0.454983 0.480484
280 1 0.468186 0.451084 0.484288
202 1 0.531814 0.451084 0.484288
203 1 0.535276 0.454983 0.480484
210 1 0.529312 0.45168 0.478605
276 1 0.456632 0.463199 0.479587
279 1 0.459269 0.458737 0.482967
195 1 0.540731 0.458737 0.482967
196 1 0.543368 0.463199 0.479587
1087 1 0.452094 0.467404 0.482843
1118 1 0.547906 0.467404 0.482843
288 1 0.446619 0.477007 0.483459
1088 1 0.450247 0.47224 0.479855
1117 1 0.549753 0.47224 0.479855
447 1 0.553381 0.477007 0.483459
289 1 0.445514 0.482416 0.480663
441 1 0.554486 0.482416 0.480663
298 1 0.442922 0.487939 0.484239
433 1 0.557078 0.487939 0.484239
299 1 0.442739 0.493865 0.481689
1034 1 0.556748 0.5 0.479228
425 1 0.557261 0.493865 0.481689
1035 1 0.558556 0.5 0.485066
562 1 0.442739 0.506135 0.481689
1080 1 0.441444 0.5 0.485066
1081 1 0.443252 0.5 0.479228
730 1 0.557261 0.506135 0.481689
563 1 0.442922 0.512061 0.484239
728 1 0.557078 0.512061 0.484239
555 1 0.445514 0.517584 0.480663
729 1 0.554486 0.517584 0.480663
556 1 0.446619 0.522993 0.483459
998 1 0.450247 0.52776 0.479855
947 1 0.549753 0.52776 0.479855
726 1 0.553381 0.522993 0.483459
997 1 0.452094 0.532596 0.482843
948 1 0.547906 0.532596 0.482843
807 1 0.456632 0.536801 0.479587
801 1 0.459269 0.541263 0.482967
739 1 0.540731 0.541263 0.482967
738 1 0.543368 0.536801 0.479587
784 1 0.470688 0.54832 0.478605
785 1 0.468186 0.548916 0.484288
793 1 0.464724 0.545017 0.480484
748 1 0.535276 0.545017 0.480484
749 1 0.531814 0.548916 0.484288
756 1 0.529312 0.54832 0.478605
925 1 0.474438 0.551987 0.482804
891 1 0.480663 0.554486 0.482416
890 1 0.487028 0.556279 0.482218
886 1 0.512972 0.556279 0.482218
885 1 0.519337 0.554486 0.482416
940 1 0.525562 0.551987 0.482804
888 1 0.5 0.557711 0.482077
889 1 0.493486 0.557355 0.482118
887 1 0.506514 0.557355 0.482118
94 1 0.490509 0.44157 0.48785
89 1 0.496817 0.440898 0.487808
83 1 0.503183 0.440898 0.487808
76 1 0.509491 0.44157 0.48785
101 1 0.478113 0.444949 0.488079
1164 1 0.472078 0.447671 0.488431
98 1 0.484239 0.442922 0.487939
68 1 0.515761 0.442922 0.487939
59 1 0.521887 0.444949 0.488079
1181 1 0.527922 0.447671 0.488431
281 1 0.462401 0.454659 0.486498
1084 1 0.460509 0.454821 0.49285
282 1 0.465986 0.451024 0.490195
193 1 0.534014 0.451024 0.490195
194 1 0.537599 0.454659 0.486498
1121 1 0.539491 0.454821 0.49285
1086 1 0.454461 0.462801 0.486064
1085 1 0.457242 0.458641 0.489372
1120 1 0.542758 0.458641 0.489372
1119 1 0.545539 0.462801 0.486064
286 1 0.450429 0.467033 0.489623
456 1 0.549571 0.467033 0.489623
287 1 0.44827 0.47186 0.486439
296 1 0.445106 0.476792 0.490009
446 1 0.554894 0.476792 0.490009
452 1 0.55173 0.47186 0.486439
297 1 0.443721 0.482218 0.487028
440 1 0.556279 0.482218 0.487028
305 1 0.44157 0.48785 0.490509
432 1 0.55843 0.48785 0.490509
306 1 0.441153 0.493835 0.487721
424 1 0.558847 0.493835 0.487721
1036 1 0.559748 0.5 0.490945
570 1 0.441153 0.506165 0.487721
1079 1 0.440252 0.5 0.490945
727 1 0.558847 0.506165 0.487721
571 1 0.44157 0.51215 0.490509
724 1 0.55843 0.51215 0.490509
564 1 0.443721 0.517782 0.487028
725 1 0.556279 0.517782 0.487028
557 1 0.44827 0.52814 0.486439
565 1 0.445106 0.523208 0.490009
721 1 0.554894 0.523208 0.490009
722 1 0.55173 0.52814 0.486439
558 1 0.450429 0.532967 0.489623
717 1 0.549571 0.532967 0.489623
996 1 0.454461 0.537199 0.486064
995 1 0.457242 0.541359 0.489372
950 1 0.542758 0.541359 0.489372
949 1 0.545539 0.537199 0.486064
794 1 0.462401 0.545341 0.486498
994 1 0.460509 0.545179 0.49285
786 1 0.465986 0.548976 0.490195
741 1 0.534014 0.548976 0.490195
740 1 0.537599 0.545341 0.486498
951 1 0.539491 0.545179 0.49285
884 1 0.478113 0.555051 0.488079
924 1 0.472078 0.552329 0.488431
883 1 0.484239 0.557078 0.487939
878 1 0.515761 0.557078 0.487939
877 1 0.521887 0.555051 0.488079
941 1 0.527922 0.552329 0.488431
882 1 0.490509 0.55843 0.48785
881 1 0.496817 0.559102 0.487808
880 1 0.503183 0.559102 0.487808
879 1 0.509491 0.55843 0.48785
100 1 0.481689 0.442739 0.493865
97 1 0.487721 0.441153 0.493835
88 1 0.5 0.439889 0.493801
93 1 0.493835 0.440206 0.493797
82 1 0.506165 0.440206 0.493797
75 1 0.512279 0.441153 0.493835
67 1 0.518311 0.442739 0.493865
1163 1 0.47002 0.447861 0.494126
102 1 0.475791 0.444964 0.49394
58 1 0.524209 0.444964 0.49394
1182 1 0.52998 0.447861 0.494126
283 1 0.459926 0.454769 0.5
1083 1 0.464146 0.451492 0.496369
462 1 0.540074 0.454769 0.5
1122 1 0.535854 0.451492 0.496369
284 1 0.456266 0.458451 0.496424
285 1 0.453104 0.462547 0.492943
459 1 0.546896 0.462547 0.492943
461 1 0.543734 0.458451 0.496424
294 1 0.449587 0.466861 0.496519
455 1 0.550413 0.466861 0.496519
295 1 0.447073 0.471642 0.493192
302 1 0.446671 0.471579 0.5
303 1 0.444349 0.476683 0.496667
445 1 0.555651 0.476683 0.496667
450 1 0.553329 0.471579 0.5
451 1 0.552927 0.471642 0.493192
304 1 0.442645 0.482118 0.493486
439 1 0.557355 0.482118 0.493486
311 1 0.440898 0.487808 0.496817
431 1 0.559102 0.487808 0.496817
312 1 0.440206 0.493797 0.493835
317 1 0.439889 0.493801 0.5
423 1 0.559794 0.493797 0.493835
1037 1 0.560356 0.5 0.497011
577 1 0.440206 0.506203 0.493835
583 1 0.439889 0.506199 0.5
1078 1 0.439644 0.5 0.497011
718 1 0.560111 0.506199 0.5
723 1 0.559794 0.506203 0.493835
578 1 0.440898 0.512192 0.496817
719 1 0.559102 0.512192 0.496817
572 1 0.442645 0.517882 0.493486
720 1 0.557355 0.517882 0.493486
566 1 0.447073 0.528358 0.493192
573 1 0.444349 0.523317 0.496667
574 1 0.446671 0.528421 0.5
709 1 0.553329 0.528421 0.5
715 1 0.555651 0.523317 0.496667
716 1 0.552927 0.528358 0.493192
567 1 0.449587 0.533139 0.496519
710 1 0.550413 0.533139 0.496519
559 1 0.453104 0.537453 0.492943
560 1 0.456266 0.541549 0.496424
704 1 0.543734 0.541549 0.496424
711 1 0.546896 0.537453 0.492943
561 1 0.459926 0.545231 0.5
993 1 0.464146 0.548508 0.496369
696 1 0.540074 0.545231 0.5
952 1 0.535854 0.548508 0.496369
923 1 0.47002 0.552139 0.494126
876 1 0.475791 0.555036 0.49394
868 1 0.524209 0.555036 0.49394
942 1 0.52998 0.552139 0.494126
875 1 0.481689 0.557261 0.493865
874 1 0.487721 0.558847 0.493835
872 1 0.5 0.560111 0.493801
873 1 0.493835 0.559794 0.493797
871 1 0.506165 0.559794 0.493797
870 1 0.512279 0.558847 0.493835
869 1 0.518311 0.557261 0.493865
22 1 0.481689 0.442739 0.506135
1198 1 0.485066 0.441444 0.5
30 1 0.487721 0.441153 0.506165
1196 1 0.490945 0.440252 0.5
37 1 0.493835 0.440206 0.506203
43 1 0.5 0.439889 0.506199
1194 1 0.497011 0.439644 0.5
48 1 0.506165 0.440206 0.506203
1192 1 0.502989 0.439644 0.5
52 1 0.512279 0.441153 0.506165
1190 1 0.509055 0.440252 0.5
55 1 0.518311 0.442739 0.506135
1188 1 0.514934 0.441444 0.5
6 1 0.46823 0.448595 0.5
1212 1 0.47002 0.447861 0.505874
13 1 0.475791 0.444964 0.50606
1202 1 0.473651 0.445617 0.5
1200 1 0.479228 0.443252 0.5
1186 1 0.520772 0.443252 0.5
57 1 0.524209 0.444964 0.50606
1184 1 0.526349 0.445617 0.5
5 1 0.53177 0.448595 0.5
1183 1 0.52998 0.447861 0.505874
1162 1 0.464146 0.451492 0.503631
1123 1 0.535854 0.451492 0.503631
292 1 0.456266 0.458451 0.503576
293 1 0.452662 0.462438 0.5
300 1 0.453104 0.462547 0.507057
457 1 0.546896 0.462547 0.507057
458 1 0.547338 0.462438 0.5
460 1 0.543734 0.458451 0.503576
301 1 0.449587 0.466861 0.503481
454 1 0.550413 0.466861 0.503481
308 1 0.447073 0.471642 0.506808
309 1 0.444349 0.476683 0.503333
444 1 0.555651 0.476683 0.503333
449 1 0.552927 0.471642 0.506808
310 1 0.442289 0.482077 0.5
315 1 0.442645 0.482118 0.506514
437 1 0.557355 0.482118 0.506514
438 1 0.557711 0.482077 0.5
316 1 0.440898 0.487808 0.503183
430 1 0.559102 0.487808 0.503183
321 1 0.440206 0.493797 0.506165
421 1 0.559794 0.493797 0.506165
422 1 0.560111 0.493801 0.5
588 1 0.440206 0.506203 0.506165
1077 1 0.439644 0.5 0.502989
712 1 0.559794 0.506203 0.506165
1038 1 0.560356 0.5 0.502989
584 1 0.440898 0.512192 0.503183
713 1 0.559102 0.512192 0.503183
579 1 0.442289 0.517923 0.5
585 1 0.442645 0.517882 0.506514
707 1 0.557355 0.517882 0.506514
714 1 0.557711 0.517923 0.5
580 1 0.444349 0.523317 0.503333
581 1 0.447073 0.528358 0.506808
701 1 0.552927 0.528358 0.506808
708 1 0.555651 0.523317 0.503333
575 1 0.449587 0.533139 0.503481
702 1 0.550413 0.533139 0.503481
568 1 0.452662 0.537562 0.5
569 1 0.456266 0.541549 0.503576
576 1 0.453104 0.537453 0.507057
694 1 0.546896 0.537453 0.507057
695 1 0.543734 0.541549 0.503576
703 1 0.547338 0.537562 0.5
992 1 0.464146 0.548508 0.503631
962 1 0.535854 0.548508 0.503631
10 1 0.46823 0.551405 0.5
982 1 0.47002 0.552139 0.505874
823 1 0.475791 0.555036 0.50606
922 1 0.473651 0.554383 0.5
921 1 0.479228 0.556748 0.5
914 1 0.520772 0.556748 0.5
831 1 0.524209 0.555036 0.50606
913 1 0.526349 0.554383 0.5
9 1 0.53177 0.551405 0.5
963 1 0.52998 0.552139 0.505874
824 1 0.481689 0.557261 0.506135
920 1 0.485066 0.558556 0.5
825 1 0.487721 0.558847 0.506165
919 1 0.490945 0.559748 0.5
826 1 0.493835 0.559794 0.506203
827 1 0.5 0.560111 0.506199
918 1 0.497011 0.560356 0.5
828 1 0.506165 0.559794 0.506203
917 1 0.502989 0.560356 0.5
829 1 0.512279 0.558847 0.506165
916 1 0.509055 0.559748 0.5
830 1 0.518311 0.557261 0.506135
915 1 0.514934 0.558556 0.5
31 1 0.490509 0.44157 0.51215
38 1 0.496817 0.440898 0.512192
44 1 0.503183 0.440898 0.512192
49 1 0.509491 0.44157 0.51215
14 1 0.478113 0.444949 0.511921
1211 1 0.472078 0.447671 0.511569
23 1 0.484239 0.442922 0.512061
53 1 0.515761 0.442922 0.512061
56 1 0.521887 0.444949 0.511921
1185 1 0.527922 0.447671 0.511569
104 1 0.462401 0.454659 0.513502
1161 1 0.460509 0.454821 0.50715
103 1 0.465986 0.451024 0.509805
192 1 0.534014 0.451024 0.509805
191 1 0.537599 0.454659 0.513502
1124 1 0.539491 0.454821 0.50715
1159 1 0.454461 0.462801 0.513936
1160 1 0.457242 0.458641 0.510628
1125 1 0.542758 0.458641 0.510628
1126 1 0.545539 0.462801 0.513936
307 1 0.450429 0.467033 0.510377
453 1 0.549571 0.467033 0.510377
313 1 0.44827 0.47186 0.513561
314 1 0.445106 0.476792 0.509991
443 1 0.554894 0.476792 0.509991
448 1 0.55173 0.47186 0.513561
319 1 0.443721 0.482218 0.512972
436 1 0.556279 0.482218 0.512972
320 1 0.44157 0.48785 0.509491
429 1 0.55843 0.48785 0.509491
324 1 0.441153 0.493835 0.512279
1076 1 0.440252 0.5 0.509055
420 1 0.558847 0.493835 0.512279
592 1 0.441153 0.506165 0.512279
705 1 0.558847 0.506165 0.512279
1039 1 0.559748 0.5 0.509055
589 1 0.44157 0.51215 0.509491
706 1 0.55843 0.51215 0.509491
590 1 0.443721 0.517782 0.512972
699 1 0.556279 0.517782 0.512972
586 1 0.445106 0.523208 0.509991
587 1 0.44827 0.52814 0.513561
692 1 0.55173 0.52814 0.513561
700 1 0.554894 0.523208 0.509991
582 1 0.450429 0.532967 0.510377
693 1 0.549571 0.532967 0.510377
989 1 0.454461 0.537199 0.513936
990 1 0.457242 0.541359 0.510628
960 1 0.542758 0.541359 0.510628
959 1 0.545539 0.537199 0.513936
605 1 0.462401 0.545341 0.513502
991 1 0.460509 0.545179 0.50715
606 1 0.465986 0.548976 0.509805
651 1 0.534014 0.548976 0.509805
659 1 0.537599 0.545341 0.513502
961 1 0.539491 0.545179 0.50715
832 1 0.478113 0.555051 0.511921
981 1 0.472078 0.552329 0.511569
833 1 0.484239 0.557078 0.512061
838 1 0.515761 0.557078 0.512061
839 1 0.521887 0.555051 0.511921
964 1 0.527922 0.552329 0.511569
834 1 0.490509 0.55843 0.51215
835 1 0.496817 0.559102 0.512192
836 1 0.503183 0.559102 0.512192
837 1 0.509491 0.55843 0.51215
32 1 0.493486 0.442645 0.517882
39 1 0.5 0.442289 0.517923
45 1 0.506514 0.442645 0.517882
1210 1 0.474438 0.448013 0.517196
15 1 0.480663 0.445514 0.517584
24 1 0.487028 0.443721 0.517782
50 1 0.512972 0.443721 0.517782
54 1 0.519337 0.445514 0.517584
1187 1 0.525562 0.448013 0.517196
112 1 0.468186 0.451084 0.515712
113 1 0.464724 0.454983 0.519516
120 1 0.470688 0.45168 0.521395
187 1 0.529312 0.45168 0.521395
188 1 0.535276 0.454983 0.519516
190 1 0.531814 0.451084 0.515712
106 1 0.456632 0.463199 0.520413
105 1 0.459269 0.458737 0.517033
189 1 0.540731 0.458737 0.517033
186 1 0.543368 0.463199 0.520413
1158 1 0.452094 0.467404 0.517157
1127 1 0.547906 0.467404 0.517157
318 1 0.446619 0.477007 0.516541
1157 1 0.450247 0.47224 0.520145
1128 1 0.549753 0.47224 0.520145
442 1 0.553381 0.477007 0.516541
322 1 0.445514 0.482416 0.519337
435 1 0.554486 0.482416 0.519337
323 1 0.442922 0.487939 0.515761
428 1 0.557078 0.487939 0.515761
326 1 0.442739 0.493865 0.518311
1075 1 0.441444 0.5 0.514934
1074 1 0.443252 0.5 0.520772
419 1 0.557261 0.493865 0.518311
595 1 0.442739 0.506135 0.518311
1041 1 0.556748 0.5 0.520772
697 1 0.557261 0.506135 0.518311
1040 1 0.558556 0.5 0.514934
593 1 0.442922 0.512061 0.515761
698 1 0.557078 0.512061 0.515761
594 1 0.445514 0.517584 0.519337
690 1 0.554486 0.517584 0.519337
591 1 0.446619 0.522993 0.516541
987 1 0.450247 0.52776 0.520145
957 1 0.549753 0.52776 0.520145
691 1 0.553381 0.522993 0.516541
988 1 0.452094 0.532596 0.517157
958 1 0.547906 0.532596 0.517157
603 1 0.456632 0.536801 0.520413
604 1 0.459269 0.541263 0.517033
666 1 0.540731 0.541263 0.517033
672 1 0.543368 0.536801 0.520413
613 1 0.464724 0.545017 0.519516
614 1 0.468186 0.548916 0.515712
621 1 0.470688 0.54832 0.521395
649 1 0.529312 0.54832 0.521395
650 1 0.531814 0.548916 0.515712
658 1 0.535276 0.545017 0.519516
980 1 0.474438 0.551987 0.517196
840 1 0.480663 0.554486 0.517584
841 1 0.487028 0.556279 0.517782
845 1 0.512972 0.556279 0.517782
846 1 0.519337 0.554486 0.517584
965 1 0.525562 0.551987 0.517196
842 1 0.493486 0.557355 0.517882
843 1 0.5 0.557711 0.517923
844 1 0.506514 0.557355 0.517882
1209 1 0.47701 0.448865 0.522548
16 1 0.483459 0.446619 0.522993
17 1 0.486439 0.44827 0.52814
25 1 0.490009 0.445106 0.523208
26 1 0.493192 0.447073 0.528358
33 1 0.496667 0.444349 0.523317
34 1 0.5 0.446671 0.528421
40 1 0.503333 0.444349 0.523317
41 1 0.506808 0.447073 0.528358
46 1 0.509991 0.445106 0.523208
47 1 0.513561 0.44827 0.52814
51 1 0.516541 0.446619 0.522993
1189 1 0.52299 0.448865 0.522548
121 1 0.467369 0.455871 0.525291
127 1 0.473422 0.452822 0.526826
1208 1 0.479855 0.450247 0.52776
1191 1 0.520145 0.450247 0.52776
183 1 0.526578 0.452822 0.526826
184 1 0.532631 0.455871 0.525291
114 1 0.461737 0.459352 0.52314
115 1 0.459266 0.464107 0.526536
181 1 0.540734 0.464107 0.526536
185 1 0.538263 0.459352 0.52314
107 1 0.454468 0.468029 0.52359
182 1 0.545532 0.468029 0.52359
1156 1 0.448865 0.477452 0.52299
108 1 0.452822 0.473174 0.526578
177 1 0.547178 0.473174 0.526578
1129 1 0.551135 0.477452 0.52299
1155 1 0.448013 0.482804 0.525562
1130 1 0.551987 0.482804 0.525562
325 1 0.444949 0.488079 0.521887
1154 1 0.447671 0.488431 0.527922
427 1 0.555051 0.488079 0.521887
1131 1 0.552329 0.488431 0.527922
327 1 0.444964 0.49394 0.524209
1073 1 0.445617 0.5 0.526349
418 1 0.555036 0.49394 0.524209
597 1 0.444964 0.50606 0.524209
688 1 0.555036 0.50606 0.524209
1042 1 0.554383 0.5 0.526349
596 1 0.444949 0.511921 0.521887
984 1 0.447671 0.511569 0.527922
689 1 0.555051 0.511921 0.521887
954 1 0.552329 0.511569 0.527922
985 1 0.448013 0.517196 0.525562
955 1 0.551987 0.517196 0.525562
986 1 0.448865 0.522548 0.52299
601 1 0.452822 0.526826 0.526578
681 1 0.547178 0.526826 0.526578
956 1 0.551135 0.522548 0.52299
602 1 0.454468 0.531971 0.52359
677 1 0.545532 0.531971 0.52359
611 1 0.459266 0.535893 0.526536
612 1 0.461737 0.540648 0.52314
665 1 0.538263 0.540648 0.52314
671 1 0.540734 0.535893 0.526536
620 1 0.467369 0.544129 0.525291
627 1 0.473422 0.547178 0.526826
978 1 0.479855 0.549753 0.52776
967 1 0.520145 0.549753 0.52776
648 1 0.526578 0.547178 0.526826
657 1 0.532631 0.544129 0.525291
979 1 0.47701 0.551135 0.522548
847 1 0.483459 0.553381 0.522993
848 1 0.490009 0.554894 0.523208
853 1 0.486439 0.55173 0.52814
849 1 0.496667 0.555651 0.523317
854 1 0.493192 0.552927 0.528358
855 1 0.5 0.553329 0.528421
850 1 0.503333 0.555651 0.523317
856 1 0.506808 0.552927 0.528358
851 1 0.509991 0.554894 0.523208
857 1 0.513561 0.55173 0.52814
852 1 0.516541 0.553381 0.522993
966 1 0.52299 0.551135 0.522548
27 1 0.496519 0.449587 0.533139
35 1 0.503481 0.449587 0.533139
133 1 0.47641 0.454468 0.531971
1207 1 0.482843 0.452094 0.532596
18 1 0.489623 0.450429 0.532967
42 1 0.510377 0.450429 0.532967
1193 1 0.517157 0.452094 0.532596
178 1 0.52359 0.454468 0.531971
122 1 0.464553 0.460527 0.528934
128 1 0.470281 0.457298 0.530743
129 1 0.467666 0.462273 0.534394
174 1 0.532334 0.462273 0.534394
179 1 0.529719 0.457298 0.530743
180 1 0.535447 0.460527 0.528934
116 1 0.457298 0.469257 0.529719
123 1 0.462273 0.465606 0.532334
124 1 0.460527 0.471066 0.535447
169 1 0.539473 0.471066 0.535447
175 1 0.537727 0.465606 0.532334
176 1 0.542702 0.469257 0.529719
117 1 0.455871 0.474709 0.532631
170 1 0.544129 0.474709 0.532631
109 1 0.45168 0.478605 0.529312
110 1 0.451084 0.484288 0.531814
118 1 0.454983 0.480484 0.535276
163 1 0.545017 0.480484 0.535276
164 1 0.548916 0.484288 0.531814
171 1 0.54832 0.478605 0.529312
111 1 0.451024 0.490195 0.534014
156 1 0.548976 0.490195 0.534014